LAMMPS (21 Nov 2023 - Development - stable_29Oct2020-13897-g851db3a531-modified)
# Test
# This test is for five different shape types, the expansion coefficients
# for which are supplied by the files: A-anm-00001.dat, cement-anm.dat,
# class_a.dat, class_b.dat, and class_c.dat.

# Particles are placed randomly in the box (with overlaps), with no initial
# velocity

atom_style	shdem 7  120 A-anm-00001.dat cement-anm.dat class_A.dat class_B.dat class_C.dat
units		si
newton          on
neigh_modify	delay 0 every 100 check yes

###############################################
# Geometry-related parameters
###############################################

variable	box_side equal 1500

region		boxreg block 0.0 ${box_side} 0.0 ${box_side} 0.0 ${box_side}
region		boxreg block 0.0 1500 0.0 ${box_side} 0.0 ${box_side}
region		boxreg block 0.0 1500 0.0 1500 0.0 ${box_side}
region		boxreg block 0.0 1500 0.0 1500 0.0 1500
create_box	5 boxreg
Created orthogonal box = (0 0 0) to (1500 1500 1500)
  1 by 1 by 1 MPI processor grid
change_box	all boundary  p p p
Changing box ...

###############################################
# Create 200 particles of each shape
###############################################

create_atoms    1 random 200 12345 boxreg  maxtry  100000
Created 200 atoms
  using lattice units in orthogonal box = (0 0 0) to (1500 1500 1500)
  create_atoms CPU = 0.001 seconds
create_atoms    2 random 200 56945 boxreg  maxtry  100000
Created 200 atoms
  using lattice units in orthogonal box = (0 0 0) to (1500 1500 1500)
  create_atoms CPU = 0.000 seconds
create_atoms    3 random 200 23795 boxreg  maxtry  100000
Created 200 atoms
  using lattice units in orthogonal box = (0 0 0) to (1500 1500 1500)
  create_atoms CPU = 0.000 seconds
create_atoms    4 random 200 95011 boxreg  maxtry  100000
Created 200 atoms
  using lattice units in orthogonal box = (0 0 0) to (1500 1500 1500)
  create_atoms CPU = 0.000 seconds
create_atoms    5 random 200  4669 boxreg  maxtry  100000
Created 200 atoms
  using lattice units in orthogonal box = (0 0 0) to (1500 1500 1500)
  create_atoms CPU = 0.000 seconds

set             type *  mass    1.0
Setting atom values ...
  1000 settings made for mass


## Setting-up sh  shape type for atom types

set		type 1 sh/shape 1
Setting atom values ...
  200 settings made for sh/shape
set		type 2 sh/shape 2
Setting atom values ...
  200 settings made for sh/shape
set		type 3 sh/shape 3
Setting atom values ...
  200 settings made for sh/shape
set		type 4 sh/shape 4
Setting atom values ...
  200 settings made for sh/shape
set		type 5 sh/shape 5
Setting atom values ...
  200 settings made for sh/shape

set		group all sh/quat/random 4
Setting atom values ...
  1000 settings made for sh/quat/random

fix		time_fix all nve/sh


thermo 1

compute TransKE all ke
compute RotKE   all erotate/shdem
compute PEcalc  all efunction/shdem

variable ETotal equal "c_PEcalc + c_TransKE + c_RotKE"
variable ERot   equal "C_RotKE"
thermo_style custom	step	c_PEcalc c_TransKE c_RotKE v_ETotal

# The pair stype is "sh-dem" and the coefficients are
# k_n = 1.0e-05, alpha = 2, L = 30 (number of quadrature points for overlap)

pair_style 	shdem
pair_coeff 	* * 1.0e-02 2.0 30


timestep	1.0e-04
run		10000
Generated 0 of 10 mixed pair_coeff terms from geometric mixing rule
Neighbor list info ...
  update: every = 100 steps, delay = 0 steps, check = yes
  max neighbors/atom: 2000, page size: 100000
  master list distance cutoff = 31.319045
  ghost atom cutoff = 31.319045
  binsize = 15.659523, bins = 96 96 96
  1 neighbor lists, perpetual/occasional/extra = 1 0 0
  (1) pair shdem, perpetual
      attributes: half, newton on
      pair build: half/bin/atomonly/newton
      stencil: half/bin/3d
      bin: standard
Per MPI rank memory allocation (min/avg/max) = 9.308 | 9.308 | 9.308 Mbytes
   Step        c_PEcalc      c_TransKE       c_RotKE        v_ETotal   
         0   0.013281413    0              0              0.013281413  
         1  -0.0055654159   0.013281351    0.0037102441   0.01142618   
         2  -0.058394976    0.05312491     0.014840826    0.0095707601 
         3  -0.14520529     0.11952919     0.033391294    0.0077151924 
         4  -0.2659931      0.21249171     0.059360898    0.0058595142 
         5  -0.42075384     0.33200901     0.092748584    0.004003763  
         6  -0.60948166     0.47807663     0.133553       0.0021479764 
         7  -0.83216942     0.65068912     0.18177249     0.00029219211
         8  -1.0888087      0.84984004     0.23740511    -0.0015635523 
         9  -1.3793898      1.075522       0.30044859    -0.0034192192 
        10  -1.7039016      1.3277265      0.37090038    -0.005274771  
        11  -2.062332       1.6064442      0.44875764    -0.00713017   
        12  -2.4546672      1.9116646      0.53401719    -0.0089853788 
        13  -2.8808925      2.2433765      0.6266756     -0.01084036   
        14  -3.3409916      2.6015674      0.72672911    -0.012695075  
        15  -3.8349471      2.986224       0.83417365    -0.014549487  
        16  -4.3627403      3.3973319      0.94900489    -0.016403559  
        17  -4.9243512      3.8348758      1.0712182     -0.018257253  
        18  -5.5197585      4.2988394      1.2008085     -0.020110531  
        19  -6.1489395      4.7892054      1.3377707     -0.021963356  
        20  -6.8118704      5.3059555      1.4820992     -0.023815691  
        21  -7.5085261      5.8490704      1.6337882     -0.025667498  
        22  -8.2388801      6.41853        1.7928314     -0.027518739  
        23  -9.0029048      7.0143129      1.9592226     -0.029369377  
        24  -9.8005712      7.636397       2.1329548     -0.031219376  
        25  -10.631849      8.284759       2.3140212     -0.033068697  
        26  -11.496707      8.9593749      2.5024143     -0.034917303  
        27  -12.395111      9.6602195      2.6981266     -0.036765158  
        28  -13.327029      10.387267      2.9011501     -0.038612223  
        29  -14.292424      11.140489      3.1114765     -0.040458462  
        30  -15.291261      11.919859      3.3290975     -0.042303838  
        31  -16.3235        12.725348      3.5540042     -0.044148313  
        32  -17.389104      13.556925      3.7861875     -0.045991851  
        33  -18.488032      14.414559      4.025638      -0.047834414  
        34  -19.620241      15.298219      4.272346      -0.049675966  
        35  -20.785689      16.207871      4.5263015     -0.051516469  
        36  -21.984332      17.14348       4.7874956     -0.053355982  
        37  -23.216687      18.105378      5.0561323     -0.055176533  
        38  -24.482799      19.093563      5.332217      -0.057019498  
        39  -25.782028      20.107637      5.6155294     -0.058861263  
        40  -27.114325      21.147565      5.9060581     -0.060701793  
        41  -28.479639      22.213306      6.2037914     -0.062541049  
        42  -29.877918      23.304822      6.5087172     -0.064378996  
        43  -31.30911       24.422071      6.8208232     -0.066215598  
        44  -32.77316       25.565012      7.1400968     -0.068050816  
        45  -34.270013      26.733603      7.466525      -0.069884616  
        46  -35.799612      27.9278        7.8000946     -0.07171696   
        47  -37.361898      29.147558      8.1407922     -0.073547813  
        48  -38.956814      30.392833      8.488604      -0.075377138  
        49  -40.584298      31.663578      8.843516      -0.077204899  
        50  -42.244289      32.959745      9.2055137     -0.07903106   
        51  -43.936724      34.281286      9.5745827     -0.080855586  
        52  -45.661539      35.628153      9.9507079     -0.082678439  
        53  -47.418669      37.000295      10.333874     -0.084499584  
        54  -49.208046      38.397661      10.724066     -0.086318986  
        55  -51.029065      39.819928      11.12099      -0.088146448  
        56  -52.881602      41.267029      11.524616     -0.089957228  
        57  -54.766142      42.739177      11.935199     -0.091766166  
        58  -56.682615      44.236317      12.352725     -0.093573226  
        59  -58.630948      45.758394      12.777175     -0.095378374  
        60  -60.610201      47.304881      13.208123     -0.097196583  
        61  -62.62022       48.875697      13.645531     -0.098991015  
        62  -64.661819      50.471249      14.089787     -0.10078344   
        63  -66.734922      52.091478      14.540871     -0.10257382   
        64  -68.839451      53.736323      14.998766     -0.10436213   
        65  -70.98205       55.410551      15.465476     -0.10602272   
        66  -73.163229      57.114318      15.941073     -0.10783771   
        67  -75.375999      58.842803      16.423545     -0.10965047   
        68  -77.620276      60.595942      16.912873     -0.11146098   
        69  -79.902829      62.378287      17.41139      -0.11315246   
        70  -82.224138      64.189968      17.919178     -0.11499258   
        71  -84.577085      66.026362      18.433893     -0.11683029   
        72  -86.961582      67.887401      18.955515     -0.11866557   
        73  -89.377537      69.773015      19.484023     -0.12049836   
        74  -91.824858      71.683134      20.019395     -0.12232865   
        75  -94.303452      73.617686      20.56161      -0.12415638   
        76  -96.813224      75.576598      21.110644     -0.12598154   
        77  -99.353051      77.559066      21.666165     -0.12782026   
        78  -101.92276      79.564988      22.22814      -0.12963604   
        79  -104.52332      81.595015      22.796852     -0.13144914   
        80  -107.15376      83.648563      23.371924     -0.13327115   
        81  -109.81394      85.72554       23.953322     -0.13507434   
        82  -112.50462      87.826373      24.541372     -0.13687477   
        83  -115.22571      89.950983      25.136052     -0.13867241   
        84  -117.97711      92.099308      25.737336     -0.14046695   
        85  -120.75873      94.271267      26.345201     -0.1422589    
        86  -123.57044      96.466766      26.959622     -0.14404795   
        87  -126.41213      98.685723      27.580574     -0.14583408   
        88  -129.28283      100.92765      28.207555     -0.14762674   
        89  -132.17945      103.19082      28.839194     -0.14943569   
        90  -135.10259      105.4755       29.4759       -0.1511928    
        91  -138.05514      107.78323      30.118961     -0.1529469    
        92  -141.03698      110.11392      30.768356     -0.15469806   
        93  -144.04798      112.46748      31.42406      -0.15644607   
        94  -147.08805      114.84382      32.086041     -0.15819097   
        95  -150.16365      117.24715      32.756645     -0.15985424   
        96  -153.27504      119.67751      33.435916     -0.16161743   
        97  -156.41541      122.13055      34.121478     -0.16337737   
        98  -159.58464      124.6062       34.813304     -0.16513402   
        99  -162.78261      127.10435      35.511365     -0.16688736   
       100  -166.00984      129.62533      36.215873     -0.1686302    
       101  -169.26624      132.16905      36.926807     -0.17037918   
       102  -172.55103      134.735        37.643905     -0.17212491   
       103  -175.86408      137.32308      38.367137     -0.17386709   
       104  -179.20475      139.93243      39.096699     -0.17561558   
       105  -182.57228      142.56187      39.833054     -0.17736551   
       106  -185.9671       145.21204      40.575962     -0.17910362   
       107  -189.38967      147.88391      41.324921     -0.18083828   
       108  -192.83987      150.5774       42.0799       -0.18256931   
       109  -196.31578      153.29147      42.839999     -0.18431306   
       110  -199.81719      156.026        43.605166     -0.18602906   
       111  -203.34579      158.78181      44.37623      -0.18774142   
       112  -206.90028      161.55832      45.1525       -0.18945937   
       113  -210.48047      164.35539      45.933927     -0.19115868   
       114  -214.0874       167.17341      46.721136     -0.19285435   
       115  -217.72023      170.01133      47.514341     -0.19455709   
       116  -221.37679      172.86793      48.31259      -0.19626457   
       117  -225.05761      175.74407      49.115593     -0.19794281   
       118  -228.76391      178.63981      49.924474     -0.19962749   
       119  -232.49555      181.55504      50.739208     -0.2013       
       120  -236.24974      184.48876      51.557981     -0.20299645   
       121  -240.02483      187.44005      52.380113     -0.2046604    
       122  -243.824        190.41059      53.207107     -0.20630396   
       123  -247.64853      193.40104      54.039543     -0.20794366   
       124  -251.4943       196.4076       54.877084     -0.2096233    
       125  -255.361        199.43005      55.719691     -0.21125292   
       126  -259.25104      202.47142      56.56673      -0.21288843   
       127  -263.16137      205.52998      57.416857     -0.21452584   
       128  -267.08976      208.60345      58.270157     -0.21615999   
       129  -271.03886      211.69324      59.127873     -0.217752     
       130  -275.01158      214.80113      59.991104     -0.21934795   
       131  -279.00599      217.92584      60.859194     -0.22094967   
       132  -283.02236      221.06811      61.731726     -0.22252774   
       133  -287.06237      224.22897      62.609299     -0.22410181   
       134  -291.12587      227.40832      63.49188      -0.22567188   
       135  -295.21271      230.60604      64.379437     -0.22723791   
       136  -299.32276      233.82203      65.271936     -0.22879988   
       137  -303.46066      237.05929      66.171052     -0.23032022   
       138  -307.62645      240.31778      67.076783     -0.23188558   
       139  -311.81191      243.59254      67.985907     -0.23346925   
       140  -316.01679      246.88341      68.898365     -0.23501622   
       141  -320.2442       250.19203      69.815608     -0.23655905   
       142  -324.49398      253.51828      70.737603     -0.23809771   
       143  -328.76599      256.86204      71.664316     -0.23963217   
       144  -333.06008      260.2232       72.595713     -0.24116241   
       145  -337.3761       263.60165      73.53176      -0.24268842   
       146  -341.7139       266.99727      74.472422     -0.24421018   
       147  -346.07333      270.40993      75.417664     -0.24572766   
       148  -350.45423      273.83953      76.367452     -0.24724085   
       149  -354.85645      277.28595      77.321751     -0.24874972   
       150  -359.27985      280.74907      78.280526     -0.25025425   
       151  -363.72426      284.22876      79.243741     -0.25175444   
       152  -368.20106      287.73154      80.216341     -0.25317401   
       153  -372.71047      291.25741      81.198372     -0.25469622   
       154  -377.2384       294.79758      82.184582     -0.25623301   
       155  -381.78311      298.35118      83.174178     -0.25775335   
       156  -386.34676      301.92013      84.167379     -0.25925568   
       157  -390.93072      305.50506      85.164908     -0.26075351   
       158  -395.53483      309.10585      86.16673      -0.26224682   
       159  -400.15893      312.72239      87.172808     -0.2637356    
       160  -404.80287      316.35454      88.183105     -0.26521982   
       161  -409.46648      320.00219      89.197586     -0.26669947   
       162  -414.1496       323.66521      90.216214     -0.26817454   
       163  -418.85208      327.34349      91.238952     -0.26964499   
       164  -423.57376      331.03689      92.265764     -0.27111083   
       165  -428.31448      334.74529      93.296612     -0.27257203   
       166  -433.07407      338.46858      94.331459     -0.27402858   
       167  -437.84996      342.20498      95.369479     -0.27549625   
       168  -442.64192      345.95436      96.410622     -0.27693888   
       169  -447.45224      349.71823      97.455639     -0.27837683   
       170  -452.29145      353.50531      98.506409     -0.27973389   
       171  -457.1575       357.31399      99.562321     -0.28118747   
       172  -462.03936      361.13532      100.62142     -0.28261814   
       173  -466.93742      364.96998      101.68338     -0.2840526    
       174  -471.85146      368.81784      102.74815     -0.28546904   
       175  -476.78303      372.67957      103.81658     -0.28688071   
       176  -481.73198      376.55504      104.88865     -0.28828761   
       177  -486.69812      380.44413      105.9643      -0.28968971   
       178  -491.68129      384.3467       107.04351     -0.291087     
       179  -496.68134      388.26263      108.12623     -0.29247947   
       180  -501.69808      392.19179      109.21242     -0.29386711   
       181  -506.73136      396.13405      110.30206     -0.2952499    
       182  -511.79671      400.1007       111.39947     -0.29653192   
       183  -516.89152      404.08999      112.50358     -0.29794296   
       184  -522.00653      408.0952       113.61204     -0.29928707   
       185  -527.13983      412.11533      114.7238      -0.30070191   
       186  -532.28419      416.1454       115.83671     -0.30207597   
       187  -537.44434      420.18801      116.95288     -0.30344508   
       188  -542.6269       424.24977      118.07237     -0.30476036   
       189  -547.83189      428.33064      119.19513     -0.30612009   
       190  -553.0523       432.42377      120.32105     -0.30747484   
       191  -558.30321      436.53914      121.45533     -0.30874056   
       192  -563.58064      440.67461      122.5959      -0.31012971   
       193  -568.86699      444.81887      123.73662     -0.31149385   
       194  -574.16627      448.97393      124.8795      -0.31283963   
       195  -579.49041      453.14723      126.02906     -0.31412651   
       196  -584.83633      457.33704      127.1838      -0.31549411   
       197  -590.18821      461.53319      128.33816     -0.31686296   
       198  -595.54896      465.73721      129.49356     -0.31819001   
       199  -600.92362      469.95145      130.65265     -0.31951696   
       200  -606.312        474.17576      131.81541     -0.32083728   
       201  -611.70832      478.40781      132.97833     -0.32217931   
       202  -617.11227      482.64745      134.14134     -0.32347782   
       203  -622.52761      486.89671      135.30612     -0.32477984   
       204  -627.9702       491.16747      136.47676     -0.32597675   
       205  -633.44221      495.46075      137.65419     -0.32727441   
       206  -638.94501      499.77696      138.83957     -0.32847401   
       207  -644.47882      504.11611      140.03293     -0.3297848    
       208  -650.0208       508.46352      141.22617     -0.33110812   
       209  -655.57072      512.81907      142.41925     -0.33239704   
       210  -661.13317      517.18464      143.61485     -0.33368074   
       211  -666.72178      521.5711       144.8158      -0.33488367   
       212  -672.33668      525.97842      146.02209     -0.33616938   
       213  -677.96088      530.39392      147.2295      -0.337462     
       214  -683.59416      534.81746      148.43797     -0.33873181   
       215  -689.23922      539.25045      149.64878     -0.33999637   
       216  -694.89589      543.69274      150.8619      -0.34125562   
       217  -700.55662      548.13851      152.07556     -0.34254705   
       218  -706.22108      552.58757      153.28973     -0.34378899   
       219  -711.89657      557.04547      154.50607     -0.34502569   
       220  -717.58211      561.51075      155.72509     -0.34626414   
       221  -723.2775       565.98324      156.94677     -0.3474923    
       222  -728.97984      570.46075      158.17035     -0.34873581   
       223  -734.68888      574.94312      159.3958      -0.34995251   
       224  -740.40806      579.43365      160.62325     -0.35116397   
       225  -746.08556      583.90015      161.83281     -0.35259194   
       226  -751.72022      588.34222      163.02429     -0.35371753   
       227  -757.37161      592.79845      164.21836     -0.35479836   
       228  -763.03775      597.26784      165.41399     -0.35592489   
       229  -768.71078      601.7435       166.61024     -0.35703595   
       230  -774.38942      606.22257      167.80869     -0.35816184   
       231  -780.07347      610.70489      169.00932     -0.35926479   
       232  -785.77733      615.20344      170.21359     -0.36030703   
       233  -791.51427      619.7287       171.42422     -0.36134549   
       234  -797.27123      624.26874      172.64002     -0.36246441   
       235  -803.02913      628.80983      173.8557      -0.36358957   
       236  -808.78932      633.35435      175.07028     -0.36468046   
       237  -814.56887      637.91315      176.29001     -0.36571728   
       238  -820.36782      642.48615      177.51486     -0.36681162   
       239  -826.17431      647.06531      178.7411      -0.36790103   
       240  -832.00501      651.662        179.97409     -0.36891516   
       241  -837.85831      656.27433      181.21395     -0.37002335   
       242  -843.71703      660.89066      182.45525     -0.37111698   
       243  -849.58006      665.51121      183.69664     -0.37221511   
       244  -855.4472       670.13584      184.93806     -0.3732947    
       245  -861.31884      674.76492      186.17955     -0.37437601   
       246  -867.19927      679.40118      187.42267     -0.37542432   
       247  -873.08505      684.04256      188.66597     -0.37650937   
       248  -878.97103      688.68492      189.90855     -0.37756688   
       249  -884.86262      693.33107      191.15292     -0.37861713   
       250  -890.75999      697.982        192.39833     -0.37966243   
       251  -896.66298      702.63754      193.64473     -0.38070279   
       252  -902.57138      707.29756      194.89208     -0.38173821   
       253  -908.48207      711.96027      196.13902     -0.38277863   
       254  -914.39481      716.62552      197.38549     -0.38380004   
       255  -920.30885      721.29281      198.63121     -0.38482841   
       256  -926.22391      725.96197      199.8761      -0.38583524   
       257  -932.14354      730.63368      201.12302     -0.3868406    
       258  -938.0677       735.30791      202.37195     -0.38784083   
       259  -943.98396      739.97842      203.61666     -0.38887787   
       260  -949.89075      744.64346      204.85743     -0.38986031   
       261  -955.80026      749.31025      206.09917     -0.39083173   
       262  -961.71358      753.98026      207.34152     -0.39179846   
       263  -967.62709      758.65159      208.58273     -0.39277073   
       264  -973.54059      763.32412      209.82275     -0.39372283   
       265  -979.45087      767.99608      211.0601      -0.3946896    
       266  -985.3556       772.66577      212.29419     -0.39563104   
       267  -991.26413      777.33836      213.52922     -0.39654819   
       268  -997.17318      782.01013      214.76556     -0.39749711   
       269  -1003.0796      786.67906      216.00213     -0.39841747   
       270  -1008.9886      791.35022      217.23904     -0.39933318   
       271  -1014.9         796.02347      218.47624     -0.40024424   
       272  -1020.8136      800.6987       219.7137      -0.40115067   
       273  -1026.7292      805.37578      220.95138     -0.40205246   
       274  -1032.6439      810.05252      222.18842     -0.40295971   
       275  -1038.5526      814.72629      223.4225      -0.40386329   
       276  -1044.4558      819.39767      224.65333     -0.40474953   
       277  -1050.3555      824.0669       225.883       -0.40563073   
       278  -1056.2493      828.7326       227.11021     -0.40651099   
       279  -1062.1394      833.39687      228.33512     -0.40736698   
       280  -1068.1         838.10863      229.58339     -0.40799083   
       281  -1074.1489      842.88098      230.85904     -0.40884225   
       282  -1080.213       847.66439      232.13889     -0.40977353   
       283  -1086.2776      852.44858      233.41833     -0.4106769    
       284  -1092.3624      857.24911      234.70179     -0.41152453   
       285  -1098.4653      862.06303      235.98986     -0.4124412    
       286  -1104.5648      866.87541      237.27608     -0.41336381   
       287  -1110.658       871.68454      238.55915     -0.4142736    
       288  -1116.746       876.48976      239.84103     -0.41517796   
       289  -1122.8285      881.29085      241.12162     -0.41607552   
       290  -1128.908       886.09038      242.40068     -0.4169565    
       291  -1134.9841      890.88849      243.67779     -0.41783994   
       292  -1141.0567      895.68508      244.95293     -0.41870694   
       293  -1147.1262      900.48001      246.22658     -0.41957599   
       294  -1153.1923      905.27315      247.49872     -0.42043055   
       295  -1159.2544      910.06399      248.76909     -0.42128888   
       296  -1165.3117      914.85215      250.03744     -0.42213163   
       297  -1171.3859      919.6531       251.30993     -0.42290771   
       298  -1177.4765      924.46538      252.58735     -0.42375769   
       299  -1183.5605      929.27281      253.86308     -0.42460944   
       300  -1189.6389      934.07696      255.13647     -0.42544095   
       301  -1195.7129      938.87869      256.40795     -0.42627393   
       302  -1201.7799      943.67651      257.67628     -0.42709913   
       303  -1207.8423      948.47159      258.94281     -0.42791044   
       304  -1213.9166      953.27417      260.21373     -0.42867618   
       305  -1220.0022      958.08277      261.48989     -0.42949559   
       306  -1226.0823      962.88662      262.76532     -0.43031582   
       307  -1232.1654      967.69221      264.04206     -0.43109773   
       308  -1238.2531      972.50058      265.32064     -0.43190858   
       309  -1244.3372      977.30637      266.59811     -0.43271079   
       310  -1250.4142      982.10769      267.87297     -0.43351924   
       311  -1256.4841      986.90326      269.14651     -0.43431052   
       312  -1262.5484      991.69329      270.41999     -0.43510592   
       313  -1268.6007      996.47294      271.69181     -0.43590762   
       314  -1274.6407      1001.2428      272.96127     -0.43668904   
       315  -1280.6747      1006.0086      274.22858     -0.4374571    
       316  -1286.7012      1010.7697      275.49332     -0.4382296    
       317  -1292.7481      1015.5484      276.76088     -0.43889909   
       318  -1298.8346      1020.3568      278.03816     -0.43962127   
       319  -1304.9252      1025.1684      279.31636     -0.44041013   
       320  -1311.0044      1029.973       280.59025     -0.44117017   
       321  -1317.0795      1034.7745      281.86313     -0.44192564   
       322  -1323.1476      1039.5707      283.13422     -0.44268418   
       323  -1329.2085      1044.3616      284.40349     -0.44342863   
       324  -1335.2649      1049.149       285.67167     -0.44416856   
       325  -1341.3164      1053.9328      286.93872     -0.44490399   
       326  -1347.3599      1058.7105      288.20381     -0.44564386   
       327  -1353.3937      1063.481       289.46627     -0.44637222   
       328  -1359.4124      1068.2419      290.72345     -0.44711019   
       329  -1365.4119      1072.9909      291.97326     -0.44782899   
       330  -1371.3975      1077.7311      293.21787     -0.44853211   
       331  -1377.3715      1082.4638      294.45854     -0.44922903   
       332  -1383.3368      1087.1903      295.69652     -0.44991211   
       333  -1389.2962      1091.9125      296.93317     -0.45059096   
       334  -1395.2498      1096.6301      298.16847     -0.45126557   
       335  -1401.1973      1101.343       299.4024      -0.45193597   
       336  -1407.13        1106.0458      300.6316      -0.45262204   
       337  -1413.0447      1110.737       301.85442     -0.45328292   
       338  -1418.9499      1115.4218      303.07418     -0.45393108   
       339  -1424.8446      1120.099       304.29107     -0.4545846    
       340  -1430.7287      1124.7685      305.50506     -0.45522173   
       341  -1436.6019      1129.4303      306.71568     -0.45586361   
       342  -1442.464       1134.0833      307.92412     -0.45649178   
       343  -1448.3191      1138.7297      309.13223     -0.45711546   
       344  -1454.1608      1143.3672      310.33593     -0.4577476    
       345  -1460.0079      1148.0092      311.54042     -0.45831141   
       346  -1465.8667      1152.6592      312.74854     -0.45892888   
       347  -1471.7342      1157.3154      313.95929     -0.45950136   
       348  -1477.6104      1161.9776      315.17266     -0.46012012   
       349  -1483.479       1166.6339      316.38435     -0.46073485   
       350  -1489.3438      1171.2867      317.59575     -0.46133618   
       351  -1495.2049      1175.9361      318.80683     -0.46194574   
       352  -1501.0578      1180.5791      320.01616     -0.46255129   
       353  -1506.8978      1185.2106      321.22401     -0.46316743   
       354  -1512.7143      1189.8247      322.42588     -0.46378583   
       355  -1518.5084      1194.4243      323.61978     -0.46437905   
       356  -1524.2902      1199.0151      324.81017     -0.4649582    
       357  -1530.0607      1203.5978      325.99741     -0.46553833   
       358  -1535.8197      1208.1721      327.18147     -0.46610766   
       359  -1541.5871      1212.7513      328.36918     -0.46663464   
       360  -1547.3587      1217.3329      329.55859     -0.46721407   
       361  -1553.1136      1221.9028      330.74297     -0.46778768   
       362  -1558.8556      1226.463       331.92423     -0.46834703   
       363  -1564.5883      1231.0159      333.10352     -0.4689026    
       364  -1570.3281      1235.5741      334.28461     -0.46941612   
       365  -1576.0713      1240.1356      335.4657      -0.46997702   
       366  -1581.7914      1244.68        336.64084     -0.47054835   
       367  -1587.5007      1249.2151      337.8145      -0.47106967   
       368  -1593.2079      1253.7469      338.98935     -0.4716172    
       369  -1598.8981      1258.2636      340.16233     -0.47217239   
       370  -1604.5868      1262.7782      341.33595     -0.47267482   
       371  -1610.2745      1267.2932      342.50801     -0.47322261   
       372  -1615.9466      1271.7975      343.67535     -0.4737533    
       373  -1621.6087      1276.2939      344.8406      -0.47428034   
       374  -1627.2608      1280.7822      346.00373     -0.47480375   
       375  -1632.8993      1285.2607      347.16328     -0.47532917   
       376  -1638.5213      1289.7276      348.31795     -0.47584769   
       377  -1644.1279      1294.1832      349.46832     -0.47636064   
       378  -1649.7216      1298.6291      350.61562     -0.47686418   
       379  -1655.2996      1303.0617      351.76055     -0.4773763    
       380  -1660.8579      1307.4787      352.90132     -0.47787903   
       381  -1666.4015      1311.885       354.03809     -0.47836844   
       382  -1671.9309      1316.2809      355.17114     -0.47886014   
       383  -1677.446       1320.6663      356.30043     -0.47934045   
       384  -1682.9503      1325.0429      357.42751     -0.47981758   
       385  -1688.4376      1329.4066      358.55066     -0.48030193   
       386  -1693.908       1333.7573      359.66988     -0.48076994   
       387  -1699.3648      1338.0973      360.78621     -0.48123993   
       388  -1704.8082      1342.4252      361.90135     -0.48170264   
       389  -1710.2378      1346.7411      363.01453     -0.48216599   
       390  -1715.6574      1351.0493      364.1255      -0.4826127    
       391  -1721.066       1355.3489      365.23402     -0.48307191   
       392  -1726.4596      1359.6374      366.33865     -0.48351983   
       393  -1731.8333      1363.9103      367.43902     -0.48398076   
       394  -1737.1871      1368.1675      368.53515     -0.48441939   
       395  -1742.5293      1372.4155      369.62895     -0.4848549    
       396  -1747.8571      1376.6521      370.7197      -0.48529311   
       397  -1753.1636      1380.8731      371.80468     -0.48573191   
       398  -1758.4515      1385.0808      372.88457     -0.48615299   
       399  -1763.7281      1389.2778      373.96375     -0.48657294   
       400  -1768.9907      1393.4622      375.04146     -0.48699497   
       401  -1774.2388      1397.6354      376.11603     -0.48740805   
       402  -1779.4915      1401.8106      377.19318     -0.48778813   
       403  -1784.7418      1405.9832      378.27031     -0.48821478   
       404  -1789.9704      1410.1402      379.34153     -0.48862688   
       405  -1795.1812      1414.2843      380.40783     -0.48903457   
       406  -1800.3932      1418.4291      381.47471     -0.4894034    
       407  -1805.6068      1422.5744      382.54251     -0.48981059   
       408  -1810.7949      1426.7025      383.60211     -0.49022333   
       409  -1815.985       1430.8336      384.66087     -0.49056792   
       410  -1821.1874      1434.9732      385.72325     -0.49096453   
       411  -1826.3745      1439.1013      386.78183     -0.49136173   
       412  -1831.5405      1443.214       387.83465     -0.49176017   
       413  -1836.688       1447.3128      388.88302     -0.4921438    
       414  -1841.8231      1451.4002      389.93043     -0.49252618   
       415  -1846.9531      1455.4811      390.9791      -0.49289328   
       416  -1852.073       1459.5542      392.02558     -0.49328013   
       417  -1857.1756      1463.6143      393.06764     -0.49365554   
       418  -1862.2618      1467.6621      394.10571     -0.49403258   
       419  -1867.3316      1471.6975      395.13977     -0.49440065   
       420  -1872.3882      1475.7222      396.17128     -0.49476623   
       421  -1877.4314      1479.7361      397.20022     -0.49512883   
       422  -1882.4613      1483.7393      398.22656     -0.49548868   
       423  -1887.4715      1487.7278      399.24783     -0.49585493   
       424  -1892.4534      1491.6968      400.26042     -0.49621745   
       425  -1897.4135      1495.6501      401.26678     -0.49656185   
       426  -1902.3601      1499.5927      402.27052     -0.49690361   
       427  -1907.2897      1503.5223      403.27016     -0.49724716   
       428  -1912.1958      1507.4345      404.26367     -0.49759117   
       429  -1917.08        1511.329       405.25302     -0.49792508   
       430  -1921.9451      1515.2082      406.2386      -0.49825852   
       431  -1926.7926      1519.0741      407.21991     -0.49858233   
       432  -1931.6266      1522.9291      408.19862     -0.49890367   
       433  -1936.4469      1526.773       409.1747      -0.49922254   
       434  -1941.2512      1530.6043      410.14734     -0.49954244   
       435  -1946.0368      1534.4216      411.11533     -0.49985825   
       436  -1950.8043      1538.2242      412.07996     -0.5001712    
       437  -1955.571       1542.0243      413.04615     -0.50045592   
       438  -1960.3352      1545.8211      414.01336     -0.5007712    
       439  -1965.0824      1549.6034      414.97784     -0.50107837   
       440  -1969.8155      1553.3744      415.93966     -0.50138317   
       441  -1974.5444      1557.1425      416.90027     -0.50166877   
       442  -1979.269       1560.9074      417.85967     -0.50197136   
       443  -1983.9795      1564.6608      418.81638     -0.50227153   
       444  -1988.6701      1568.3996      419.76798     -0.50257561   
       445  -1993.3368      1572.1208      420.71314     -0.50287465   
       446  -1997.9811      1575.8253      421.65268     -0.50316854   
       447  -2002.5967      1579.5095      422.58371     -0.50346615   
       448  -2007.1874      1583.1758      423.50785     -0.50374474   
       449  -2011.7613      1586.8291      424.42814     -0.50402377   
       450  -2016.3117      1590.4658      425.34159     -0.5043038    
       451  -2020.8394      1594.0861      426.24874     -0.50457414   
       452  -2025.3486      1597.6923      427.15144     -0.50484192   
       453  -2029.838       1601.2838      428.04908     -0.50510723   
       454  -2034.3064      1604.8598      428.94122     -0.5053694    
       455  -2038.7569      1608.4221      429.82916     -0.50562483   
       456  -2043.2064      1611.9821      430.71846     -0.50586031   
       457  -2047.6531      1615.5385      431.60846     -0.50611862   
       458  -2052.0834      1619.0819      432.49511     -0.5063719    
       459  -2056.4991      1622.6134      433.37907     -0.50662316   
       460  -2060.9086      1626.139       434.26278     -0.50686047   
       461  -2065.3051      1629.6546      435.14342     -0.50711787   
       462  -2069.677       1633.1519      436.01775     -0.50736773   
       463  -2074.0314      1636.6352      436.8886      -0.50761071   
       464  -2078.3617      1640.1003      437.75355     -0.50786296   
       465  -2082.6575      1643.5409      438.60848     -0.50810954   
       466  -2086.9411      1646.9725      439.46027     -0.50832268   
       467  -2091.2313      1650.4084      440.31437     -0.5085442    
       468  -2095.512       1653.8374      441.16576     -0.50877868   
       469  -2099.775       1657.2529      442.01312     -0.50900788   
       470  -2104.0212      1660.6549      442.85704     -0.50923744   
       471  -2108.2516      1664.0448      443.69736     -0.5094595    
       472  -2112.4651      1667.4208      444.53463     -0.50968639   
       473  -2116.6609      1670.782       445.36902     -0.50990775   
       474  -2120.8382      1674.1286      446.19949     -0.51013125   
       475  -2124.9895      1677.455       447.02408     -0.51035658   
       476  -2129.1181      1680.7636      447.84398     -0.51056949   
       477  -2133.2318      1684.0599      448.66117     -0.51078061   
       478  -2137.3285      1687.3416      449.47591     -0.51099299   
       479  -2141.4082      1690.6088      450.28822     -0.51120067   
       480  -2145.4681      1693.861       451.09568     -0.51141098   
       481  -2149.5044      1697.0959      451.89688     -0.511617     
       482  -2153.5188      1700.3144      452.6925      -0.51182013   
       483  -2157.509       1703.5154      453.48162     -0.51202186   
       484  -2161.4763      1706.6995      454.26455     -0.51221718   
       485  -2165.4237      1709.8687      455.04258     -0.51240999   
       486  -2169.3539      1713.0244      455.8169      -0.51259858   
       487  -2173.2618      1716.1623      456.58672     -0.51279337   
       488  -2177.1453      1719.2812      457.35107     -0.5129791    
       489  -2181.0096      1722.3851      458.1113      -0.5131632    
       490  -2184.8523      1725.4725      458.86642     -0.51334677   
       491  -2188.6713      1728.5416      459.61613     -0.5135274    
       492  -2192.4709      1731.5939      460.3633      -0.51370329   
       493  -2196.2552      1734.6326      461.10875     -0.5138769    
       494  -2200.0176      1737.655       461.84855     -0.51405466   
       495  -2203.7581      1740.6612      462.58271     -0.51422323   
       496  -2207.4796      1743.6524      463.31272     -0.51439423   
       497  -2211.1788      1746.6269      464.0373      -0.51456135   
       498  -2214.8591      1749.5853      464.75902     -0.51472543   
       499  -2218.5234      1752.5294      465.47916     -0.51488698   
       500  -2222.1714      1755.459       466.19739     -0.51504922   
       501  -2225.7919      1758.3648      466.91185     -0.51522014   
       502  -2229.384       1761.2466      467.62204     -0.51537938   
       503  -2232.9575      1764.1128      468.3292      -0.51553616   
       504  -2236.5099      1766.9632      469.03094     -0.51569317   
       505  -2240.0428      1769.799       469.72794     -0.51584372   
       506  -2243.5594      1772.6219      470.42156     -0.51599455   
       507  -2247.0596      1775.4317      471.11179     -0.51614203   
       508  -2250.5455      1778.2296      471.79959     -0.51628838   
       509  -2254.0258      1781.0211      472.48822     -0.51642589   
       510  -2257.5004      1783.8062      473.17765     -0.5165722    
       511  -2260.9577      1786.5765      473.86448     -0.51672049   
       512  -2264.3977      1789.3321      474.54872     -0.51686408   
       513  -2267.8159      1792.0713      475.22766     -0.51701256   
       514  -2271.2073      1794.791       475.89918     -0.51715551   
       515  -2274.5839      1797.4987      476.56795     -0.51728781   
       516  -2277.9432      1800.1926      477.23314     -0.51743079   
       517  -2281.2775      1802.8681      477.89185     -0.51756748   
       518  -2284.5928      1805.5289      478.5462      -0.51770098   
       519  -2287.8878      1808.1746      479.19537     -0.51783418   
       520  -2291.1593      1810.8019      479.83949     -0.51796769   
       521  -2294.4095      1813.4119      480.47957     -0.51809586   
       522  -2297.6437      1816.0091      481.11638     -0.51822089   
       523  -2300.8622      1818.5925      481.7513      -0.5183471    
       524  -2304.062       1821.1603      482.38318     -0.51847258   
       525  -2307.2517      1823.7193      483.01379     -0.51858822   
       526  -2310.4303      1826.2691      483.64251     -0.51871302   
       527  -2313.5887      1828.8037      484.2662      -0.51883444   
       528  -2316.731       1831.3255      484.88661     -0.51895278   
       529  -2319.8529      1833.8313      485.50258     -0.51907556   
       530  -2322.9509      1836.3191      486.11257     -0.51919263   
       531  -2326.0316      1838.7935      486.71877     -0.5193053    
       532  -2329.0987      1841.2566      487.32269     -0.51941698   
       533  -2332.1593      1843.7134      487.92637     -0.51952201   
       534  -2335.2084      1846.161       488.5278      -0.51963625   
       535  -2338.239       1848.5944      489.12494     -0.51974533   
       536  -2341.2537      1851.015       489.71885     -0.51985487   
       537  -2344.248       1853.4202      490.30783     -0.51996432   
       538  -2347.2194      1855.8086      490.89072     -0.52007175   
       539  -2350.1799      1858.1887      491.47096     -0.52016848   
       540  -2353.1314      1860.5608      492.05024     -0.52027421   
       541  -2356.0662      1862.919       492.62687     -0.52037641   
       542  -2358.9876      1865.2658      493.20128     -0.52047769   
       543  -2361.8956      1867.6004      493.77463     -0.52057874   
       544  -2364.7902      1869.9226      494.34692     -0.52067879   
       545  -2367.667       1872.2309      494.91531     -0.5207808    
       546  -2370.5238      1874.524       495.4789      -0.52087946   
       547  -2373.3641      1876.8031      496.04001     -0.52097647   
       548  -2376.1884      1879.0686      496.59879     -0.52107282   
       549  -2378.9935      1881.3195      497.15284     -0.52116903   
       550  -2381.7775      1883.5545      497.70172     -0.52126413   
       551  -2384.5426      1885.7749      498.24636     -0.52135607   
       552  -2387.289       1887.9811      498.78649     -0.52144766   
       553  -2390.0099      1890.1687      499.31965     -0.52154165   
       554  -2392.7087      1892.3397      499.84736     -0.52162733   
       555  -2395.3945      1894.4998      500.37298     -0.52171224   
       556  -2398.0656      1896.648       500.89579     -0.5217972    
       557  -2400.7193      1898.7826      501.41481     -0.52188182   
       558  -2403.3548      1900.903       501.92979     -0.52196495   
       559  -2405.9684      1903.0072      502.43913     -0.52204881   
       560  -2408.5606      1905.0954      502.94312     -0.52212939   
       561  -2411.1352      1907.1697      503.44329     -0.52220831   
       562  -2413.6945      1909.2318      503.9404      -0.52228513   
       563  -2416.2353      1911.2796      504.43335     -0.52236473   
       564  -2418.7552      1913.3107      504.92205     -0.5224408    
       565  -2421.2584      1915.3276      505.40831     -0.52251528   
       566  -2423.7526      1917.3383      505.89172     -0.52258348   
       567  -2426.2363      1919.3417      506.37194     -0.52265661   
       568  -2428.7046      1921.3324      506.84946     -0.52272751   
       569  -2431.1519      1923.3073      507.32175     -0.52280174   
       570  -2433.5759      1925.265       507.788       -0.52287138   
       571  -2435.985       1927.2106      508.25146     -0.52293875   
       572  -2438.3776      1929.1421      508.71245     -0.52300804   
       573  -2440.7483      1931.0563      509.16892     -0.52307668   
       574  -2443.0994      1932.9546      509.62168     -0.52314237   
       575  -2445.4344      1934.8392      510.072       -0.52320711   
       576  -2447.747       1936.7059      510.51782     -0.52327424   
       577  -2450.0394      1938.5561      510.95997     -0.52333581   
       578  -2452.3198      1940.3962      511.40026     -0.5233968    
       579  -2454.5853      1942.2235      511.83827     -0.52345896   
       580  -2456.8351      1944.0378      512.27376     -0.5235189    
       581  -2459.0669      1945.8367      512.70662     -0.52358132   
       582  -2461.2758      1947.6171      513.13502     -0.52364186   
       583  -2463.4675      1949.3835      513.56031     -0.52369915   
       584  -2465.6458      1951.1381      513.9839      -0.52375659   
       585  -2467.8094      1952.8804      514.40516     -0.52381335   
       586  -2469.9571      1954.6095      514.82378     -0.52387029   
       587  -2472.0902      1956.3267      515.23959     -0.52392464   
       588  -2474.2107      1958.0334      515.65327     -0.52397906   
       589  -2476.3167      1959.7287      516.06403     -0.52403283   
       590  -2478.4069      1961.4117      516.47116     -0.52408622   
       591  -2480.4774      1963.0801      516.8732      -0.52414006   
       592  -2482.5288      1964.7335      517.27106     -0.52419156   
       593  -2484.5658      1966.375       517.66653     -0.52424191   
       594  -2486.588       1968.0048      518.05886     -0.52429221   
       595  -2488.5949      1969.6219      518.44862     -0.52434169   
       596  -2490.5887      1971.2276      518.83673     -0.52438984   
       597  -2492.565       1972.8199      519.2206      -0.52444003   
       598  -2494.5237      1974.3989      519.60029     -0.5244863    
       599  -2496.4685      1975.9666      519.9773      -0.52453345   
       600  -2498.3994      1977.5231      520.35163     -0.52457846   
       601  -2500.3176      1979.0687      520.72422     -0.52462393   
       602  -2502.2195      1980.6011      521.09375     -0.52466954   
       603  -2504.105       1982.1207      521.45957     -0.52471374   
       604  -2505.9762      1983.629       521.8225      -0.52475669   
       605  -2507.8313      1985.1246      522.18187     -0.52480068   
       606  -2509.6714      1986.6083      522.53823     -0.52484163   
       607  -2511.4972      1988.0807      522.89163     -0.52488356   
       608  -2513.3075      1989.541       523.24152     -0.5249237    
       609  -2515.1059      1990.9916      523.58929     -0.52496292   
       610  -2516.8939      1992.4334      523.93553     -0.52500176   
       611  -2518.6689      1993.8647      524.27918     -0.52504107   
       612  -2520.428       1995.2836      524.6194      -0.52508022   
       613  -2522.1719      1996.6902      524.95657     -0.5251179    
       614  -2523.8993      1998.0835      525.2907      -0.52515625   
       615  -2525.6125      1999.4648      525.62246     -0.52519228   
       616  -2527.3154      2000.8375      525.95272     -0.52522796   
       617  -2529.0067      2002.2006      526.28082     -0.52526372   
       618  -2530.6825      2003.5523      526.60492     -0.52529986   
       619  -2532.3405      2004.891       526.92411     -0.52533495   
       620  -2533.9843      2006.2187      527.24026     -0.52536816   
       621  -2535.6175      2007.5373      527.55477     -0.52540141   
       622  -2537.237       2008.8449      527.86667     -0.5254351    
       623  -2538.8435      2010.1413      528.17677     -0.52546723   
       624  -2540.4401      2011.4285      528.48603     -0.52549891   
       625  -2542.0252      2012.7061      528.79365     -0.52553089   
       626  -2543.5975      2013.9729      529.09901     -0.52556224   
       627  -2545.1568      2015.2295      529.40167     -0.52559326   
       628  -2546.6993      2016.4735      529.70016     -0.52562494   
       629  -2548.2246      2017.7046      529.99439     -0.52565479   
       630  -2549.7333      2018.9229      530.28471     -0.52568494   
       631  -2551.224       2020.1277      530.5706      -0.52571409   
       632  -2552.7009      2021.3218      530.85334     -0.52574178   
       633  -2554.1673      2022.5073      531.13426     -0.52576902   
       634  -2555.6225      2023.6836      531.41308     -0.52579651   
       635  -2557.0642      2024.8495      531.68889     -0.52582363   
       636  -2558.4944      2026.0061      531.96248     -0.52584972   
       637  -2559.9135      2027.1533      532.23439     -0.52587615   
       638  -2561.3193      2028.2891      532.50423     -0.52590245   
       639  -2562.7099      2029.4123      532.77169     -0.52592874   
       640  -2564.0862      2030.5232      533.03709     -0.52595411   
       641  -2565.4496      2031.6234      533.30021     -0.52597924   
       642  -2566.8015      2032.7144      533.56112     -0.52600339   
       643  -2568.1418      2033.7959      533.8199      -0.52602826   
       644  -2569.4683      2034.866       534.07629     -0.52605246   
       645  -2570.7822      2035.9255      534.33065     -0.52607603   
       646  -2572.085       2036.9759      534.58297     -0.52609874   
       647  -2573.3763      2038.0172      534.83302     -0.52612158   
       648  -2574.656       2039.0486      535.08125     -0.52614392   
       649  -2575.9256      2040.0707      535.32869     -0.52616579   
       650  -2577.1819      2041.0821      535.57357     -0.52618838   
       651  -2578.4231      2042.0821      535.81478     -0.52620983   
       652  -2579.6497      2043.0711      536.05235     -0.52623123   
       653  -2580.8623      2044.0496      536.28644     -0.52625167   
       654  -2582.0651      2045.0201      536.51866     -0.52627147   
       655  -2583.2596      2045.9832      536.7502      -0.52629125   
       656  -2584.4426      2046.9366      536.97964     -0.52631147   
       657  -2585.6119      2047.8798      537.20575     -0.52633096   
       658  -2586.77        2048.8142      537.42945     -0.52634993   
       659  -2587.919       2049.7411      537.65153     -0.5263684    
       660  -2589.06        2050.6611      537.87247     -0.52638669   
       661  -2590.1896      2051.5716      538.0916      -0.52640571   
       662  -2591.3063      2052.4712      538.30874     -0.52642392   
       663  -2592.4116      2053.3616      538.52364     -0.52644211   
       664  -2593.5024      2054.2409      538.735       -0.52646019   
       665  -2594.5796      2055.1097      538.94338     -0.52647695   
       666  -2595.6452      2055.9693      539.14939     -0.52649391   
       667  -2596.699       2056.8196      539.35292     -0.5265103    
       668  -2597.7417      2057.6611      539.55403     -0.52652644   
       669  -2598.7739      2058.4941      539.75328     -0.52654219   
       670  -2599.797       2059.3192      539.95124     -0.52655775   
       671  -2600.8105      2060.1365      540.14748     -0.52657326   
       672  -2601.8143      2060.9454      540.34226     -0.52658877   
       673  -2602.8086      2061.7462      540.53582     -0.52660385   
       674  -2603.7948      2062.5401      540.72807     -0.52661859   
       675  -2604.7734      2063.3276      540.91921     -0.52663307   
       676  -2605.743       2064.1077      541.10868     -0.5266478    
       677  -2606.7014      2064.8791      541.2957      -0.52666227   
       678  -2607.6501      2065.6427      541.48069     -0.52667622   
       679  -2608.5904      2066.3994      541.66427     -0.5266901    
       680  -2609.5205      2067.1481      541.84573     -0.52670397   
       681  -2610.4394      2067.8879      542.02475     -0.52671752   
       682  -2611.347       2068.619       542.20126     -0.52673092   
       683  -2612.2448      2069.3424      542.37568     -0.5267438    
       684  -2613.1348      2070.0592      542.54882     -0.52675652   
       685  -2614.0166      2070.7694      542.72043     -0.5267691    
       686  -2614.8885      2071.4717      542.89004     -0.52678173   
       687  -2615.7503      2072.1657      543.05779     -0.52679407   
       688  -2616.6026      2072.852       543.22373     -0.52680625   
       689  -2617.4448      2073.5306      543.38737     -0.5268183    
       690  -2618.277       2074.2011      543.54909     -0.52683018   
       691  -2619.0998      2074.8635      543.70946     -0.52684185   
       692  -2619.9125      2075.5179      543.86779     -0.5268535    
       693  -2620.7155      2076.1646      544.02399     -0.52686473   
       694  -2621.5099      2076.8045      544.17856     -0.52687582   
       695  -2622.295       2077.4364      544.33165     -0.52688699   
       696  -2623.0705      2078.0604      544.48315     -0.52689775   
       697  -2623.8377      2078.6779      544.63294     -0.52690827   
       698  -2624.5977      2079.2894      544.78135     -0.52691864   
       699  -2625.3496      2079.8945      544.92819     -0.52692905   
       700  -2626.0938      2080.4933      545.07359     -0.52693911   
       701  -2626.8305      2081.0858      545.21776     -0.52694928   
       702  -2627.5567      2081.6697      545.36003     -0.52695955   
       703  -2628.2725      2082.2448      545.50064     -0.52696935   
       704  -2628.9794      2082.8124      545.63997     -0.526979     
       705  -2629.6788      2083.3739      545.77792     -0.52698831   
       706  -2630.372       2083.9302      545.91478     -0.52699754   
       707  -2631.0553      2084.4788      546.04947     -0.52700715   
       708  -2631.7288      2085.0198      546.18203     -0.52701603   
       709  -2632.3951      2085.5549      546.31321     -0.52702501   
       710  -2633.0533      2086.0836      546.44273     -0.52703372   
       711  -2633.7048      2086.6068      546.57096     -0.52704232   
       712  -2634.3505      2087.1252      546.69828     -0.5270508    
       713  -2634.9887      2087.6375      546.82414     -0.52705944   
       714  -2635.6179      2088.1428      546.94801     -0.52706784   
       715  -2636.2385      2088.6413      547.07008     -0.52707612   
       716  -2636.8508      2089.1331      547.19054     -0.52708429   
       717  -2637.4555      2089.6189      547.30958     -0.52709225   
       718  -2638.0544      2090.0997      547.42756     -0.5271001    
       719  -2638.6465      2090.5752      547.5442      -0.52710802   
       720  -2639.2318      2091.0452      547.65951     -0.52711567   
       721  -2639.8116      2091.5106      547.77387     -0.52712329   
       722  -2640.3844      2091.9705      547.8868      -0.52713106   
       723  -2640.9504      2092.4249      547.99836     -0.52713851   
       724  -2641.5085      2092.8729      548.10839     -0.52714607   
       725  -2642.0579      2093.3141      548.21666     -0.52715342   
       726  -2642.5994      2093.7488      548.3234      -0.52716069   
       727  -2643.1333      2094.1771      548.42906     -0.52716793   
       728  -2643.6608      2094.5999      548.53373     -0.52717485   
       729  -2644.1815      2095.0174      548.63692     -0.52718174   
       730  -2644.6964      2095.4303      548.73892     -0.52718843   
       731  -2645.2054      2095.8383      548.8399      -0.52719519   
       732  -2645.7077      2096.2407      548.93981     -0.52720185   
       733  -2646.2036      2096.6377      549.03865     -0.52720842   
       734  -2646.6935      2097.03        549.13628     -0.52721488   
       735  -2647.1781      2097.418       549.23296     -0.52722125   
       736  -2647.6573      2097.8015      549.32861     -0.5272276    
       737  -2648.1306      2098.1802      549.42318     -0.5272339    
       738  -2648.5967      2098.5531      549.51638     -0.52724027   
       739  -2649.0548      2098.9197      549.60787     -0.5272465    
       740  -2649.5058      2099.2807      549.69786     -0.52725257   
       741  -2649.9504      2099.6366      549.78648     -0.52725858   
       742  -2650.3891      2099.988       549.87384     -0.52726446   
       743  -2650.823       2100.3355      549.9603      -0.52727026   
       744  -2651.252       2100.6789      550.04581     -0.52727605   
       745  -2651.6754      2101.018       550.13012     -0.52728178   
       746  -2652.0937      2101.353       550.21346     -0.52728743   
       747  -2652.5063      2101.6834      550.29568     -0.52729311   
       748  -2652.9121      2102.0084      550.37639     -0.52729878   
       749  -2653.3123      2102.3291      550.45594     -0.52730426   
       750  -2653.707       2102.6451      550.53458     -0.52730975   
       751  -2654.0952      2102.9558      550.61203     -0.52731512   
       752  -2654.4769      2103.2615      550.68813     -0.52732045   
       753  -2654.8532      2103.5627      550.76316     -0.52732566   
       754  -2655.225       2103.8602      550.83747     -0.52733083   
       755  -2655.5921      2104.1539      550.91091     -0.52733596   
       756  -2655.9546      2104.4438      550.98339     -0.52734104   
       757  -2656.3121      2104.7299      551.05489     -0.52734615   
       758  -2656.6647      2105.012       551.12531     -0.52735117   
       759  -2657.0123      2105.2901      551.19488     -0.52735616   
       760  -2657.3551      2105.5641      551.26363     -0.5273611    
       761  -2657.6925      2105.8339      551.3313      -0.52736601   
       762  -2658.0243      2106.099       551.39788     -0.52737091   
       763  -2658.351       2106.3602      551.46348     -0.52737579   
       764  -2658.674       2106.6183      551.52837     -0.52738053   
       765  -2658.9932      2106.8733      551.59253     -0.52738526   
       766  -2659.308       2107.1249      551.65571     -0.52738995   
       767  -2659.6183      2107.373       551.71791     -0.52739461   
       768  -2659.9244      2107.6177      551.77929     -0.52739921   
       769  -2660.2265      2107.8592      551.83993     -0.52740379   
       770  -2660.5239      2108.0969      551.89966     -0.52740836   
       771  -2660.8163      2108.3305      551.95832     -0.52741291   
       772  -2661.1047      2108.561       552.01621     -0.52741738   
       773  -2661.389       2108.7884      552.07326     -0.52742185   
       774  -2661.6693      2109.0124      552.12939     -0.52742625   
       775  -2661.9459      2109.2337      552.18475     -0.52743063   
       776  -2662.2186      2109.4519      552.23932     -0.52743498   
       777  -2662.4869      2109.6665      552.29291     -0.52743933   
       778  -2662.7507      2109.8777      552.34555     -0.52744367   
       779  -2663.0111      2110.0861      552.39752     -0.52744793   
       780  -2663.2677      2110.2915      552.44873     -0.52745218   
       781  -2663.5204      2110.4937      552.49928     -0.52745639   
       782  -2663.77        2110.6933      552.54928     -0.52746056   
       783  -2664.0162      2110.8902      552.5986      -0.52746471   
       784  -2664.2584      2111.0839      552.64707     -0.52746889   
       785  -2664.4964      2111.2742      552.69468     -0.527473     
       786  -2664.7309      2111.4618      552.74162     -0.52747709   
       787  -2664.9621      2111.6467      552.78796     -0.52748114   
       788  -2665.1901      2111.8289      552.83364     -0.52748528   
       789  -2665.4144      2112.0083      552.87862     -0.52748936   
       790  -2665.6355      2112.185       552.92293     -0.52749336   
       791  -2665.8533      2112.3592      552.96656     -0.52749737   
       792  -2666.0676      2112.5306      553.00947     -0.52750133   
       793  -2666.2782      2112.699       553.05161     -0.5275053    
       794  -2666.4848      2112.8644      553.0929      -0.52750923   
       795  -2666.6885      2113.0275      553.13353     -0.52751312   
       796  -2666.8896      2113.1884      553.17364     -0.527517     
       797  -2667.088       2113.3473      553.21322     -0.52752085   
       798  -2667.2835      2113.5038      553.25217     -0.52752469   
       799  -2667.4755      2113.6576      553.2904      -0.52752852   
       800  -2667.6647      2113.8091      553.3281      -0.52753231   
       801  -2667.8514      2113.9586      553.36526     -0.52753608   
       802  -2668.0355      2114.1061      553.4019      -0.52753984   
       803  -2668.2172      2114.2516      553.43804     -0.52754358   
       804  -2668.3956      2114.3947      553.47343     -0.52754731   
       805  -2668.571       2114.5354      553.5081      -0.52755101   
       806  -2668.7443      2114.6744      553.54234     -0.52755469   
       807  -2668.9157      2114.8119      553.57622     -0.52755836   
       808  -2669.0848      2114.9477      553.60961     -0.52756202   
       809  -2669.2513      2115.0813      553.64242     -0.52756566   
       810  -2669.415       2115.2128      553.67466     -0.52756928   
       811  -2669.5765      2115.3425      553.70646     -0.52757289   
       812  -2669.7358      2115.4704      553.73783     -0.52757648   
       813  -2669.8928      2115.5965      553.76868     -0.52758006   
       814  -2670.047       2115.7205      553.79889     -0.52758362   
       815  -2670.1984      2115.8423      553.8285      -0.52758717   
       816  -2670.3476      2115.9624      553.85763     -0.52759069   
       817  -2670.495       2116.0811      553.88638     -0.5275942    
       818  -2670.6409      2116.1985      553.91481     -0.52759771   
       819  -2670.7847      2116.3143      553.94279     -0.5276012    
       820  -2670.9261      2116.4282      553.97023     -0.52760467   
       821  -2671.0655      2116.5406      553.99729     -0.52760816   
       822  -2671.2033      2116.6516      554.024       -0.52761166   
       823  -2671.3394      2116.7614      554.0504      -0.52761508   
       824  -2671.4741      2116.87        554.07647     -0.5276185    
       825  -2671.6069      2116.9772      554.10215     -0.52762191   
       826  -2671.7377      2117.0827      554.12734     -0.5276253    
       827  -2671.8666      2117.1869      554.1521      -0.52762868   
       828  -2671.994       2117.2899      554.17654     -0.52763205   
       829  -2672.1199      2117.3916      554.20064     -0.52763541   
       830  -2672.2443      2117.4922      554.22443     -0.52763875   
       831  -2672.367       2117.5915      554.24786     -0.52764213   
       832  -2672.4879      2117.6894      554.27087     -0.52764543   
       833  -2672.6071      2117.786       554.29352     -0.52764872   
       834  -2672.7248      2117.8814      554.31584     -0.527652     
       835  -2672.8409      2117.9755      554.33778     -0.52765527   
       836  -2672.9555      2118.0684      554.35938     -0.52765852   
       837  -2673.0688      2118.1604      554.38074     -0.52766177   
       838  -2673.1809      2118.2514      554.40183     -0.527665     
       839  -2673.2916      2118.3413      554.42262     -0.52766822   
       840  -2673.4011      2118.4303      554.44318     -0.52767147   
       841  -2673.5097      2118.5184      554.46357     -0.52767469   
       842  -2673.6172      2118.6058      554.48373     -0.52767792   
       843  -2673.7235      2118.6922      554.50365     -0.52768116   
       844  -2673.8284      2118.7775      554.52326     -0.52768437   
       845  -2673.9321      2118.8618      554.54261     -0.52768757   
       846  -2674.035       2118.9455      554.56178     -0.52769076   
       847  -2674.1368      2119.0284      554.58071     -0.52769397   
       848  -2674.2373      2119.1102      554.5994      -0.52769739   
       849  -2674.3367      2119.1911      554.61791     -0.52770054   
       850  -2674.4353      2119.2713      554.63625     -0.52770367   
       851  -2674.5329      2119.3508      554.65439     -0.52770687   
       852  -2674.6293      2119.4293      554.67229     -0.52771001   
       853  -2674.7248      2119.5071      554.68996     -0.52771313   
       854  -2674.8195      2119.5843      554.70744     -0.52771625   
       855  -2674.9133      2119.6608      554.72473     -0.52771935   
       856  -2675.0064      2119.7368      554.74187     -0.52772245   
       857  -2675.0988      2119.8122      554.75886     -0.52772553   
       858  -2675.1906      2119.8872      554.77572     -0.52772861   
       859  -2675.2818      2119.9617      554.79245     -0.52773167   
       860  -2675.3723      2120.0356      554.80902     -0.52773473   
       861  -2675.4622      2120.109       554.82546     -0.52773777   
       862  -2675.5515      2120.182       554.84176     -0.52774081   
       863  -2675.6402      2120.2545      554.85793     -0.52774384   
       864  -2675.7283      2120.3265      554.87397     -0.5277469    
       865  -2675.8157      2120.3981      554.88991     -0.52774992   
       866  -2675.9028      2120.4693      554.90576     -0.52775294   
       867  -2675.9893      2120.5401      554.92148     -0.52775594   
       868  -2676.0753      2120.6105      554.9371      -0.52775894   
       869  -2676.1609      2120.6805      554.95262     -0.52776193   
       870  -2676.246       2120.7502      554.96804     -0.52776493   
       871  -2676.3306      2120.8195      554.98337     -0.52776791   
       872  -2676.4149      2120.8885      554.99863     -0.52777088   
       873  -2676.4988      2120.9572      555.0138      -0.52777384   
       874  -2676.5823      2121.0257      555.02888     -0.52777679   
       875  -2676.6655      2121.0939      555.04391     -0.52777973   
       876  -2676.7484      2121.1618      555.05886     -0.52778267   
       877  -2676.831       2121.2294      555.07375     -0.52778566   
       878  -2676.9132      2121.2968      555.08858     -0.52778858   
       879  -2676.9951      2121.3639      555.10336     -0.52779149   
       880  -2677.0767      2121.4309      555.11807     -0.52779442   
       881  -2677.1581      2121.4976      555.1327      -0.52779729   
       882  -2677.2392      2121.5641      555.14728     -0.52780017   
       883  -2677.32        2121.6304      555.1618      -0.52780303   
       884  -2677.4007      2121.6966      555.17628     -0.52780588   
       885  -2677.4811      2121.7626      555.19073     -0.52780872   
       886  -2677.5615      2121.8285      555.20514     -0.52781155   
       887  -2677.6416      2121.8942      555.21953     -0.5278144    
       888  -2677.7215      2121.9598      555.23389     -0.52781722   
       889  -2677.8013      2122.0253      555.24822     -0.52782004   
       890  -2677.8809      2122.0906      555.26253     -0.52782288   
       891  -2677.9604      2122.1557      555.27682     -0.52782568   
       892  -2678.0397      2122.2208      555.29109     -0.52782848   
       893  -2678.1189      2122.2857      555.30533     -0.52783127   
       894  -2678.198       2122.3506      555.31955     -0.52783406   
       895  -2678.277       2122.4154      555.33375     -0.52783683   
       896  -2678.3558      2122.4801      555.34794     -0.52783959   
       897  -2678.4346      2122.5447      555.3621      -0.52784234   
       898  -2678.5133      2122.6092      555.37625     -0.5278451    
       899  -2678.5919      2122.6737      555.39037     -0.52784784   
       900  -2678.6703      2122.738       555.40445     -0.52785062   
       901  -2678.7486      2122.8022      555.41847     -0.52785331   
       902  -2678.8268      2122.8664      555.43248     -0.52785598   
       903  -2678.9049      2122.9305      555.44647     -0.52785865   
       904  -2678.9829      2122.9945      555.46047     -0.52786134   
       905  -2679.0608      2123.0585      555.47446     -0.527864     
       906  -2679.1386      2123.1223      555.48844     -0.52786665   
       907  -2679.2164      2123.1862      555.50241     -0.52786929   
       908  -2679.2941      2123.2499      555.51636     -0.52787193   
       909  -2679.3718      2123.3136      555.53031     -0.52787456   
       910  -2679.4493      2123.3772      555.54424     -0.52787718   
       911  -2679.5268      2123.4408      555.55816     -0.52787979   
       912  -2679.6042      2123.5043      555.57206     -0.52788239   
       913  -2679.6816      2123.5677      555.58596     -0.52788499   
       914  -2679.7588      2123.6311      555.59984     -0.52788757   
       915  -2679.8359      2123.6943      555.61372     -0.52789021   
       916  -2679.913       2123.7575      555.62761     -0.52789279   
       917  -2679.9899      2123.8205      555.64148     -0.52789536   
       918  -2680.0668      2123.8835      555.65534     -0.52789793   
       919  -2680.1435      2123.9464      555.66919     -0.52790048   
       920  -2680.2202      2124.0093      555.68303     -0.52790303   
       921  -2680.2969      2124.0721      555.69685     -0.52790557   
       922  -2680.3734      2124.1349      555.71066     -0.5279081    
       923  -2680.4499      2124.1975      555.72446     -0.52791063   
       924  -2680.5263      2124.2602      555.73824     -0.52791315   
       925  -2680.6026      2124.3226      555.75204     -0.52791574   
       926  -2680.6786      2124.3849      555.76586     -0.52791826   
       927  -2680.7546      2124.4471      555.77966     -0.52792078   
       928  -2680.8306      2124.5092      555.79345     -0.52792328   
       929  -2680.9064      2124.5713      555.80723     -0.52792578   
       930  -2680.9822      2124.6333      555.821       -0.52792827   
       931  -2681.0579      2124.6952      555.83475     -0.52793075   
       932  -2681.1335      2124.7571      555.84849     -0.52793323   
       933  -2681.209       2124.8189      555.86222     -0.52793572   
       934  -2681.2844      2124.8806      555.87595     -0.52793818   
       935  -2681.3598      2124.9422      555.88966     -0.52794064   
       936  -2681.435       2125.0037      555.90336     -0.52794309   
       937  -2681.5102      2125.0652      555.91705     -0.52794553   
       938  -2681.5853      2125.1266      555.93072     -0.52794796   
       939  -2681.6603      2125.188       555.94439     -0.5279504    
       940  -2681.7352      2125.2492      555.95806     -0.52795283   
       941  -2681.81        2125.3103      555.97172     -0.52795524   
       942  -2681.8848      2125.3714      555.98537     -0.52795765   
       943  -2681.9594      2125.4324      555.999       -0.52796011   
       944  -2682.0338      2125.4932      556.01264     -0.52796251   
       945  -2682.1081      2125.5539      556.02627     -0.52796492   
       946  -2682.1824      2125.6145      556.03989     -0.52796731   
       947  -2682.2565      2125.6751      556.05349     -0.52796973   
       948  -2682.3305      2125.7355      556.06707     -0.5279721    
       949  -2682.4044      2125.7958      556.08063     -0.52797446   
       950  -2682.4783      2125.8561      556.09418     -0.52797681   
       951  -2682.552       2125.9163      556.10771     -0.52797916   
       952  -2682.6257      2125.9765      556.12123     -0.52798149   
       953  -2682.6993      2126.0365      556.13475     -0.52798384   
       954  -2682.7727      2126.0965      556.14826     -0.52798617   
       955  -2682.8461      2126.1564      556.16176     -0.52798849   
       956  -2682.9194      2126.2162      556.17524     -0.5279908    
       957  -2682.9926      2126.2759      556.18873     -0.52799313   
       958  -2683.0657      2126.3355      556.20221     -0.52799544   
       959  -2683.1387      2126.395       556.21568     -0.52799777   
       960  -2683.2115      2126.4544      556.22915     -0.52800007   
       961  -2683.2843      2126.5137      556.24261     -0.52800236   
       962  -2683.357       2126.5729      556.25604     -0.52800464   
       963  -2683.4295      2126.6321      556.26946     -0.52800691   
       964  -2683.502       2126.6912      556.28287     -0.52800918   
       965  -2683.5745      2126.7502      556.29626     -0.52801143   
       966  -2683.6467      2126.8091      556.30964     -0.52801372   
       967  -2683.7189      2126.8678      556.323       -0.52801597   
       968  -2683.7909      2126.9265      556.33636     -0.5280182    
       969  -2683.8629      2126.9852      556.3497      -0.52802043   
       970  -2683.9348      2127.0437      556.36302     -0.52802265   
       971  -2684.0065      2127.1022      556.37634     -0.52802489   
       972  -2684.0782      2127.1605      556.38966     -0.52802711   
       973  -2684.1497      2127.2188      556.40296     -0.52802931   
       974  -2684.2212      2127.2769      556.41625     -0.52803151   
       975  -2684.2926      2127.3351      556.42952     -0.5280337    
       976  -2684.3639      2127.3931      556.44278     -0.52803588   
       977  -2684.4351      2127.4511      556.45602     -0.52803806   
       978  -2684.5062      2127.5089      556.46926     -0.52804025   
       979  -2684.5772      2127.5667      556.48249     -0.52804242   
       980  -2684.6481      2127.6243      556.49571     -0.52804458   
       981  -2684.7189      2127.6819      556.50892     -0.52804674   
       982  -2684.7896      2127.7394      556.52211     -0.52804888   
       983  -2684.8602      2127.7969      556.53528     -0.52805102   
       984  -2684.9308      2127.8543      556.54844     -0.52805315   
       985  -2685.0012      2127.9116      556.56158     -0.52805527   
       986  -2685.0715      2127.9688      556.57471     -0.52805743   
       987  -2685.1416      2128.0257      556.58782     -0.52805958   
       988  -2685.2116      2128.0826      556.60093     -0.52806169   
       989  -2685.2814      2128.1393      556.61403     -0.52806379   
       990  -2685.3512      2128.196       556.6271      -0.52806588   
       991  -2685.4209      2128.2527      556.64017     -0.52806797   
       992  -2685.4905      2128.3092      556.65321     -0.52807004   
       993  -2685.56        2128.3657      556.66624     -0.52807211   
       994  -2685.6294      2128.4221      556.67926     -0.52807417   
       995  -2685.6988      2128.4784      556.69226     -0.52807623   
       996  -2685.768       2128.5347      556.70524     -0.52807828   
       997  -2685.8371      2128.5909      556.71821     -0.52808031   
       998  -2685.9062      2128.6469      556.73117     -0.52808237   
       999  -2685.9751      2128.7029      556.74414     -0.52808441   
      1000  -2686.0439      2128.7587      556.7571      -0.52808644   
      1001  -2686.1126      2128.8144      556.77006     -0.52808849   
      1002  -2686.1811      2128.87        556.78301     -0.52809052   
      1003  -2686.2496      2128.9255      556.79595     -0.52809256   
      1004  -2686.3179      2128.9809      556.80886     -0.52809456   
      1005  -2686.3861      2129.0363      556.82176     -0.52809657   
      1006  -2686.4543      2129.0915      556.83464     -0.52809856   
      1007  -2686.5223      2129.1467      556.84751     -0.52810055   
      1008  -2686.5903      2129.2018      556.86037     -0.52810255   
      1009  -2686.6581      2129.2567      556.87324     -0.52810454   
      1010  -2686.7258      2129.3116      556.88609     -0.52810652   
      1011  -2686.7934      2129.3664      556.89893     -0.52810849   
      1012  -2686.8609      2129.4211      556.91176     -0.52811045   
      1013  -2686.9284      2129.4757      556.92457     -0.52811241   
      1014  -2686.9957      2129.5303      556.93736     -0.52811436   
      1015  -2687.063       2129.5847      556.95013     -0.5281163    
      1016  -2687.1301      2129.6391      556.96289     -0.52811823   
      1017  -2687.1972      2129.6934      556.97564     -0.52812017   
      1018  -2687.2642      2129.7477      556.98838     -0.5281221    
      1019  -2687.331       2129.8018      557.0011      -0.52812402   
      1020  -2687.3978      2129.8558      557.01382     -0.52812594   
      1021  -2687.4644      2129.9098      557.02652     -0.52812784   
      1022  -2687.531       2129.9637      557.0392      -0.52812974   
      1023  -2687.5975      2130.0175      557.05187     -0.52813164   
      1024  -2687.6638      2130.0712      557.06452     -0.52813352   
      1025  -2687.7301      2130.1248      557.07715     -0.5281354    
      1026  -2687.7963      2130.1784      557.08977     -0.52813727   
      1027  -2687.8624      2130.2319      557.10237     -0.52813914   
      1028  -2687.9284      2130.2854      557.11495     -0.528141     
      1029  -2687.9944      2130.3387      557.12752     -0.52814285   
      1030  -2688.0602      2130.392       557.14006     -0.52814469   
      1031  -2688.1259      2130.4452      557.1526      -0.52814654   
      1032  -2688.1915      2130.4983      557.16511     -0.52814837   
      1033  -2688.2571      2130.5513      557.1776      -0.52815019   
      1034  -2688.3224      2130.6042      557.19006     -0.52815204   
      1035  -2688.3876      2130.657       557.20248     -0.52815384   
      1036  -2688.4527      2130.7097      557.21489     -0.52815563   
      1037  -2688.5178      2130.7623      557.22728     -0.52815743   
      1038  -2688.5825      2130.8147      557.23964     -0.52815927   
      1039  -2688.6471      2130.867       557.25198     -0.52816106   
      1040  -2688.7115      2130.919       557.26433     -0.52816285   
      1041  -2688.7758      2130.9709      557.27667     -0.52816462   
      1042  -2688.8399      2131.0228      557.28899     -0.52816638   
      1043  -2688.904       2131.0745      557.30129     -0.52816813   
      1044  -2688.968       2131.1262      557.31358     -0.52816987   
      1045  -2689.0319      2131.1778      557.32586     -0.52817161   
      1046  -2689.0956      2131.2294      557.33811     -0.52817335   
      1047  -2689.1593      2131.2808      557.35035     -0.52817507   
      1048  -2689.2229      2131.3322      557.36257     -0.52817679   
      1049  -2689.2864      2131.3835      557.37476     -0.52817852   
      1050  -2689.3497      2131.4346      557.38693     -0.52818022   
      1051  -2689.413       2131.4857      557.39908     -0.52818191   
      1052  -2689.4762      2131.5368      557.41121     -0.5281836    
      1053  -2689.5392      2131.5877      557.42334     -0.5281853    
      1054  -2689.6021      2131.6385      557.43546     -0.52818698   
      1055  -2689.6649      2131.6892      557.44756     -0.52818866   
[...]
      9738  -2709.8622      2147.5432      561.79051     -0.52853515   
      9739  -2709.8622      2147.5432      561.79051     -0.52853515   
      9740  -2709.8622      2147.5432      561.79051     -0.52853515   
      9741  -2709.8622      2147.5432      561.79051     -0.52853515   
      9742  -2709.8622      2147.5432      561.79051     -0.52853515   
      9743  -2709.8622      2147.5432      561.79051     -0.52853515   
      9744  -2709.8622      2147.5432      561.79051     -0.52853515   
      9745  -2709.8622      2147.5432      561.79051     -0.52853515   
      9746  -2709.8622      2147.5432      561.79051     -0.52853515   
      9747  -2709.8622      2147.5432      561.79051     -0.52853515   
      9748  -2709.8622      2147.5432      561.79051     -0.52853515   
      9749  -2709.8622      2147.5432      561.79051     -0.52853515   
      9750  -2709.8622      2147.5432      561.79051     -0.52853515   
      9751  -2709.8622      2147.5432      561.79051     -0.52853515   
      9752  -2709.8622      2147.5432      561.79051     -0.52853515   
      9753  -2709.8622      2147.5432      561.79051     -0.52853515   
      9754  -2709.8622      2147.5432      561.79051     -0.52853515   
      9755  -2709.8622      2147.5432      561.79051     -0.52853515   
      9756  -2709.8622      2147.5432      561.79051     -0.52853515   
      9757  -2709.8622      2147.5432      561.79051     -0.52853515   
      9758  -2709.8622      2147.5432      561.79051     -0.52853515   
      9759  -2709.8622      2147.5432      561.79051     -0.52853515   
      9760  -2709.8622      2147.5432      561.79051     -0.52853515   
      9761  -2709.8622      2147.5432      561.79051     -0.52853515   
      9762  -2709.8622      2147.5432      561.79051     -0.52853515   
      9763  -2709.8622      2147.5432      561.79051     -0.52853515   
      9764  -2709.8622      2147.5432      561.79051     -0.52853515   
      9765  -2709.8622      2147.5432      561.79051     -0.52853515   
      9766  -2709.8622      2147.5432      561.79051     -0.52853515   
      9767  -2709.8622      2147.5432      561.79051     -0.52853515   
      9768  -2709.8622      2147.5432      561.79051     -0.52853515   
      9769  -2709.8622      2147.5432      561.79051     -0.52853515   
      9770  -2709.8622      2147.5432      561.79051     -0.52853515   
      9771  -2709.8622      2147.5432      561.79051     -0.52853515   
      9772  -2709.8622      2147.5432      561.79051     -0.52853515   
      9773  -2709.8622      2147.5432      561.79051     -0.52853515   
      9774  -2709.8622      2147.5432      561.79051     -0.52853515   
      9775  -2709.8622      2147.5432      561.79051     -0.52853515   
      9776  -2709.8622      2147.5432      561.79051     -0.52853515   
      9777  -2709.8622      2147.5432      561.79051     -0.52853515   
      9778  -2709.8622      2147.5432      561.79051     -0.52853515   
      9779  -2709.8622      2147.5432      561.79051     -0.52853515   
      9780  -2709.8622      2147.5432      561.79051     -0.52853515   
      9781  -2709.8622      2147.5432      561.79051     -0.52853515   
      9782  -2709.8622      2147.5432      561.79051     -0.52853515   
      9783  -2709.8622      2147.5432      561.79051     -0.52853515   
      9784  -2709.8622      2147.5432      561.79051     -0.52853515   
      9785  -2709.8622      2147.5432      561.79051     -0.52853515   
      9786  -2709.8622      2147.5432      561.79051     -0.52853515   
      9787  -2709.8622      2147.5432      561.79051     -0.52853515   
      9788  -2709.8623      2147.5432      561.79051     -0.52853515   
      9789  -2709.8623      2147.5432      561.79051     -0.52853515   
      9790  -2709.8623      2147.5432      561.79051     -0.52853515   
      9791  -2709.8623      2147.5432      561.79051     -0.52853515   
      9792  -2709.8623      2147.5432      561.79051     -0.52853515   
      9793  -2709.8623      2147.5432      561.79051     -0.52853515   
      9794  -2709.8623      2147.5432      561.79051     -0.52853515   
      9795  -2709.8623      2147.5432      561.79051     -0.52853515   
      9796  -2709.8623      2147.5432      561.79051     -0.52853515   
      9797  -2709.8623      2147.5432      561.79051     -0.52853515   
      9798  -2709.8623      2147.5432      561.79051     -0.52853515   
      9799  -2709.8623      2147.5432      561.79051     -0.52853515   
      9800  -2709.8623      2147.5432      561.79051     -0.52853515   
      9801  -2709.8623      2147.5432      561.79051     -0.52853515   
      9802  -2709.8623      2147.5432      561.79051     -0.52853515   
      9803  -2709.8623      2147.5432      561.79051     -0.52853515   
      9804  -2709.8623      2147.5432      561.79051     -0.52853515   
      9805  -2709.8623      2147.5432      561.79051     -0.52853515   
      9806  -2709.8623      2147.5432      561.79051     -0.52853515   
      9807  -2709.8623      2147.5432      561.79051     -0.52853515   
      9808  -2709.8623      2147.5432      561.79051     -0.52853515   
      9809  -2709.8623      2147.5432      561.79051     -0.52853515   
      9810  -2709.8623      2147.5432      561.79051     -0.52853515   
      9811  -2709.8623      2147.5432      561.79051     -0.52853515   
      9812  -2709.8623      2147.5432      561.79051     -0.52853515   
      9813  -2709.8623      2147.5432      561.79051     -0.52853515   
      9814  -2709.8623      2147.5432      561.79051     -0.52853515   
      9815  -2709.8623      2147.5432      561.79051     -0.52853515   
      9816  -2709.8623      2147.5432      561.79051     -0.52853515   
      9817  -2709.8623      2147.5432      561.79051     -0.52853515   
      9818  -2709.8623      2147.5432      561.79051     -0.52853515   
      9819  -2709.8623      2147.5432      561.79051     -0.52853515   
      9820  -2709.8623      2147.5432      561.79051     -0.52853515   
      9821  -2709.8623      2147.5432      561.79051     -0.52853515   
      9822  -2709.8623      2147.5432      561.79051     -0.52853515   
      9823  -2709.8623      2147.5432      561.79051     -0.52853515   
      9824  -2709.8623      2147.5432      561.79051     -0.52853515   
      9825  -2709.8623      2147.5432      561.79051     -0.52853515   
      9826  -2709.8623      2147.5432      561.79051     -0.52853515   
      9827  -2709.8623      2147.5432      561.79051     -0.52853515   
      9828  -2709.8623      2147.5432      561.79051     -0.52853515   
      9829  -2709.8623      2147.5432      561.79051     -0.52853515   
      9830  -2709.8623      2147.5432      561.79051     -0.52853515   
      9831  -2709.8623      2147.5432      561.79051     -0.52853515   
      9832  -2709.8623      2147.5432      561.79051     -0.52853515   
      9833  -2709.8623      2147.5432      561.79051     -0.52853515   
      9834  -2709.8623      2147.5432      561.79051     -0.52853515   
      9835  -2709.8623      2147.5432      561.79051     -0.52853515   
      9836  -2709.8623      2147.5432      561.79051     -0.52853515   
      9837  -2709.8623      2147.5432      561.79051     -0.52853515   
      9838  -2709.8623      2147.5432      561.79051     -0.52853515   
      9839  -2709.8623      2147.5432      561.79051     -0.52853515   
      9840  -2709.8623      2147.5432      561.79051     -0.52853515   
      9841  -2709.8623      2147.5432      561.79051     -0.52853515   
      9842  -2709.8623      2147.5432      561.79051     -0.52853515   
      9843  -2709.8623      2147.5432      561.79051     -0.52853515   
      9844  -2709.8623      2147.5432      561.79051     -0.52853515   
      9845  -2709.8623      2147.5432      561.79051     -0.52853515   
      9846  -2709.8623      2147.5432      561.79051     -0.52853515   
      9847  -2709.8623      2147.5432      561.79051     -0.52853515   
      9848  -2709.8623      2147.5432      561.79051     -0.52853515   
      9849  -2709.8623      2147.5432      561.79051     -0.52853515   
      9850  -2709.8623      2147.5432      561.79051     -0.52853515   
      9851  -2709.8623      2147.5432      561.79051     -0.52853515   
      9852  -2709.8623      2147.5432      561.79051     -0.52853515   
      9853  -2709.8623      2147.5432      561.79051     -0.52853515   
      9854  -2709.8623      2147.5432      561.79051     -0.52853515   
      9855  -2709.8623      2147.5432      561.79051     -0.52853515   
      9856  -2709.8623      2147.5432      561.79051     -0.52853515   
      9857  -2709.8623      2147.5432      561.79051     -0.52853515   
      9858  -2709.8623      2147.5432      561.79051     -0.52853515   
      9859  -2709.8623      2147.5432      561.79051     -0.52853515   
      9860  -2709.8623      2147.5432      561.79051     -0.52853515   
      9861  -2709.8623      2147.5432      561.79051     -0.52853515   
      9862  -2709.8623      2147.5432      561.79051     -0.52853515   
      9863  -2709.8623      2147.5432      561.79051     -0.52853515   
      9864  -2709.8623      2147.5432      561.79051     -0.52853515   
      9865  -2709.8623      2147.5432      561.79051     -0.52853515   
      9866  -2709.8623      2147.5432      561.79051     -0.52853515   
      9867  -2709.8623      2147.5432      561.79052     -0.52853515   
      9868  -2709.8623      2147.5432      561.79052     -0.52853515   
      9869  -2709.8623      2147.5432      561.79052     -0.52853515   
      9870  -2709.8623      2147.5432      561.79052     -0.52853515   
      9871  -2709.8623      2147.5432      561.79052     -0.52853515   
      9872  -2709.8623      2147.5432      561.79052     -0.52853515   
      9873  -2709.8623      2147.5432      561.79052     -0.52853515   
      9874  -2709.8623      2147.5432      561.79052     -0.52853515   
      9875  -2709.8623      2147.5432      561.79052     -0.52853515   
      9876  -2709.8623      2147.5432      561.79052     -0.52853515   
      9877  -2709.8623      2147.5432      561.79052     -0.52853515   
      9878  -2709.8623      2147.5432      561.79052     -0.52853515   
      9879  -2709.8623      2147.5432      561.79052     -0.52853515   
      9880  -2709.8623      2147.5432      561.79052     -0.52853515   
      9881  -2709.8623      2147.5432      561.79052     -0.52853515   
      9882  -2709.8623      2147.5432      561.79052     -0.52853515   
      9883  -2709.8623      2147.5432      561.79052     -0.52853515   
      9884  -2709.8623      2147.5432      561.79052     -0.52853515   
      9885  -2709.8623      2147.5432      561.79052     -0.52853515   
      9886  -2709.8623      2147.5432      561.79052     -0.52853515   
      9887  -2709.8623      2147.5432      561.79052     -0.52853515   
      9888  -2709.8623      2147.5432      561.79052     -0.52853515   
      9889  -2709.8623      2147.5432      561.79052     -0.52853515   
      9890  -2709.8623      2147.5432      561.79052     -0.52853515   
      9891  -2709.8623      2147.5432      561.79052     -0.52853515   
      9892  -2709.8623      2147.5432      561.79052     -0.52853515   
      9893  -2709.8623      2147.5432      561.79052     -0.52853515   
      9894  -2709.8623      2147.5432      561.79052     -0.52853515   
      9895  -2709.8623      2147.5432      561.79052     -0.52853515   
      9896  -2709.8623      2147.5432      561.79052     -0.52853515   
      9897  -2709.8623      2147.5432      561.79052     -0.52853515   
      9898  -2709.8623      2147.5432      561.79052     -0.52853515   
      9899  -2709.8623      2147.5432      561.79052     -0.52853515   
      9900  -2709.8623      2147.5432      561.79052     -0.52853515   
      9901  -2709.8623      2147.5432      561.79052     -0.52853515   
      9902  -2709.8623      2147.5432      561.79052     -0.52853515   
      9903  -2709.8623      2147.5432      561.79052     -0.52853515   
      9904  -2709.8623      2147.5432      561.79052     -0.52853515   
      9905  -2709.8623      2147.5432      561.79052     -0.52853515   
      9906  -2709.8623      2147.5432      561.79052     -0.52853515   
      9907  -2709.8623      2147.5432      561.79052     -0.52853515   
      9908  -2709.8623      2147.5432      561.79052     -0.52853515   
      9909  -2709.8623      2147.5432      561.79052     -0.52853515   
      9910  -2709.8623      2147.5432      561.79052     -0.52853515   
      9911  -2709.8623      2147.5432      561.79052     -0.52853515   
      9912  -2709.8623      2147.5432      561.79052     -0.52853515   
      9913  -2709.8623      2147.5432      561.79052     -0.52853515   
      9914  -2709.8623      2147.5432      561.79052     -0.52853515   
      9915  -2709.8623      2147.5432      561.79052     -0.52853515   
      9916  -2709.8623      2147.5432      561.79052     -0.52853515   
      9917  -2709.8623      2147.5432      561.79052     -0.52853515   
      9918  -2709.8623      2147.5432      561.79052     -0.52853515   
      9919  -2709.8623      2147.5432      561.79052     -0.52853515   
      9920  -2709.8623      2147.5432      561.79052     -0.52853515   
      9921  -2709.8623      2147.5432      561.79052     -0.52853515   
      9922  -2709.8623      2147.5432      561.79052     -0.52853515   
      9923  -2709.8623      2147.5432      561.79052     -0.52853515   
      9924  -2709.8623      2147.5432      561.79052     -0.52853515   
      9925  -2709.8623      2147.5432      561.79052     -0.52853515   
      9926  -2709.8623      2147.5432      561.79052     -0.52853515   
      9927  -2709.8623      2147.5432      561.79052     -0.52853515   
      9928  -2709.8623      2147.5432      561.79052     -0.52853515   
      9929  -2709.8623      2147.5432      561.79052     -0.52853515   
      9930  -2709.8623      2147.5432      561.79052     -0.52853515   
      9931  -2709.8623      2147.5432      561.79052     -0.52853515   
      9932  -2709.8623      2147.5432      561.79052     -0.52853515   
      9933  -2709.8623      2147.5432      561.79052     -0.52853515   
      9934  -2709.8623      2147.5432      561.79052     -0.52853515   
      9935  -2709.8623      2147.5432      561.79052     -0.52853515   
      9936  -2709.8623      2147.5432      561.79052     -0.52853515   
      9937  -2709.8623      2147.5432      561.79052     -0.52853515   
      9938  -2709.8623      2147.5432      561.79052     -0.52853515   
      9939  -2709.8623      2147.5432      561.79052     -0.52853515   
      9940  -2709.8623      2147.5432      561.79052     -0.52853515   
      9941  -2709.8623      2147.5432      561.79052     -0.52853515   
      9942  -2709.8623      2147.5432      561.79052     -0.52853515   
      9943  -2709.8623      2147.5432      561.79052     -0.52853515   
      9944  -2709.8623      2147.5432      561.79052     -0.52853515   
      9945  -2709.8623      2147.5432      561.79052     -0.52853515   
      9946  -2709.8623      2147.5432      561.79052     -0.52853515   
      9947  -2709.8623      2147.5432      561.79052     -0.52853515   
      9948  -2709.8623      2147.5432      561.79052     -0.52853515   
      9949  -2709.8623      2147.5432      561.79052     -0.52853515   
      9950  -2709.8623      2147.5432      561.79052     -0.52853515   
      9951  -2709.8623      2147.5432      561.79052     -0.52853515   
      9952  -2709.8623      2147.5432      561.79052     -0.52853515   
      9953  -2709.8623      2147.5432      561.79052     -0.52853515   
      9954  -2709.8623      2147.5432      561.79052     -0.52853515   
      9955  -2709.8623      2147.5432      561.79052     -0.52853515   
      9956  -2709.8623      2147.5432      561.79052     -0.52853515   
      9957  -2709.8623      2147.5432      561.79052     -0.52853515   
      9958  -2709.8623      2147.5432      561.79052     -0.52853515   
      9959  -2709.8623      2147.5432      561.79052     -0.52853515   
      9960  -2709.8623      2147.5432      561.79052     -0.52853515   
      9961  -2709.8623      2147.5432      561.79052     -0.52853515   
      9962  -2709.8623      2147.5432      561.79052     -0.52853515   
      9963  -2709.8623      2147.5432      561.79052     -0.52853515   
      9964  -2709.8623      2147.5432      561.79052     -0.52853515   
      9965  -2709.8623      2147.5432      561.79052     -0.52853515   
      9966  -2709.8623      2147.5432      561.79052     -0.52853515   
      9967  -2709.8623      2147.5432      561.79052     -0.52853515   
      9968  -2709.8623      2147.5432      561.79052     -0.52853515   
      9969  -2709.8623      2147.5432      561.79052     -0.52853515   
      9970  -2709.8623      2147.5432      561.79052     -0.52853515   
      9971  -2709.8623      2147.5432      561.79052     -0.52853515   
      9972  -2709.8623      2147.5432      561.79052     -0.52853515   
      9973  -2709.8623      2147.5432      561.79052     -0.52853515   
      9974  -2709.8623      2147.5432      561.79052     -0.52853515   
      9975  -2709.8623      2147.5432      561.79052     -0.52853515   
      9976  -2709.8623      2147.5432      561.79052     -0.52853515   
      9977  -2709.8623      2147.5432      561.79052     -0.52853515   
      9978  -2709.8623      2147.5432      561.79052     -0.52853515   
      9979  -2709.8623      2147.5432      561.79052     -0.52853515   
      9980  -2709.8623      2147.5432      561.79052     -0.52853515   
      9981  -2709.8623      2147.5432      561.79052     -0.52853515   
      9982  -2709.8623      2147.5432      561.79052     -0.52853515   
      9983  -2709.8623      2147.5432      561.79052     -0.52853515   
      9984  -2709.8623      2147.5432      561.79052     -0.52853515   
      9985  -2709.8623      2147.5432      561.79052     -0.52853515   
      9986  -2709.8623      2147.5432      561.79052     -0.52853515   
      9987  -2709.8623      2147.5432      561.79052     -0.52853515   
      9988  -2709.8623      2147.5432      561.79052     -0.52853515   
      9989  -2709.8623      2147.5432      561.79052     -0.52853515   
      9990  -2709.8623      2147.5432      561.79052     -0.52853515   
      9991  -2709.8623      2147.5432      561.79052     -0.52853515   
      9992  -2709.8623      2147.5432      561.79052     -0.52853515   
      9993  -2709.8623      2147.5432      561.79052     -0.52853515   
      9994  -2709.8623      2147.5432      561.79052     -0.52853515   
      9995  -2709.8623      2147.5432      561.79052     -0.52853515   
      9996  -2709.8623      2147.5432      561.79052     -0.52853515   
      9997  -2709.8623      2147.5432      561.79052     -0.52853515   
      9998  -2709.8623      2147.5432      561.79052     -0.52853515   
      9999  -2709.8623      2147.5432      561.79052     -0.52853515   
     10000  -2709.8623      2147.5432      561.79052     -0.52853515   
Loop time of 481.361 on 1 procs for 10000 steps with 1000 atoms

99.3% CPU use with 1 MPI tasks x no OpenMP threads

MPI task timing breakdown:
Section |  min time  |  avg time  |  max time  |%varavg| %total
---------------------------------------------------------------
Pair    | 477.96     | 477.96     | 477.96     |   0.0 | 99.29
Neigh   | 0.085123   | 0.085123   | 0.085123   |   0.0 |  0.02
Comm    | 0.12804    | 0.12804    | 0.12804    |   0.0 |  0.03
Output  | 1.7145     | 1.7145     | 1.7145     |   0.0 |  0.36
Modify  | 1.4412     | 1.4412     | 1.4412     |   0.0 |  0.30
Other   |            | 0.03503    |            |       |  0.01

Nlocal:           1000 ave        1000 max        1000 min
Histogram: 1 0 0 0 0 0 0 0 0 0
Nghost:            129 ave         129 max         129 min
Histogram: 1 0 0 0 0 0 0 0 0 0
Neighs:              8 ave           8 max           8 min
Histogram: 1 0 0 0 0 0 0 0 0 0

Total # of neighbors = 8
Ave neighs/atom = 0.008
Neighbor list builds = 100
Dangerous builds = 100
Total wall time: 0:08:01
