LAMMPS (21 Nov 2023 - Development - stable_29Oct2020-13896-gaf03d5760a-modified)
# Test

atom_style	shdem 20 120 A-anm-00001.dat
units		cgs
newton          off


###############################################
# Geometry-related parameters
###############################################

variable	boxx equal 40
variable	boxy equal 40
variable	boxz equal 40

region		boxreg block 0 ${boxx} 0 ${boxy} 0 ${boxz}
region		boxreg block 0 40 0 ${boxy} 0 ${boxz}
region		boxreg block 0 40 0 40 0 ${boxz}
region		boxreg block 0 40 0 40 0 40
create_box	2 boxreg
Created orthogonal box = (0 0 0) to (40 40 40)
  1 by 1 by 1 MPI processor grid
change_box	all boundary f f f
Changing box ...

create_atoms 	1 single 20.0 20.0 17.0
Created 1 atoms
  using lattice units in orthogonal box = (0 0 0) to (40 40 40)
  create_atoms CPU = 0.000 seconds

set 		atom 1 vx 0.0 vy 0.0 vz -5.0
Setting atom values ...
  1 settings made for vx
  1 settings made for vy
  1 settings made for vz
set		atom 1 sh/shape 1
Setting atom values ...
  1 settings made for sh/shape
set		group all sh/quat/random 4
Setting atom values ...
  1 settings made for sh/quat/random

pair_style      shdem
pair_coeff      * * 1.0e-05 2.0 30


fix		time_fix all nve/sh
fix             zwall all wall/shdem 1.0e-5 2.0 30 NULL zplane 0.0 40.0

neigh_modify	delay 0 every 1 check yes
comm_modify	vel yes

thermo 1

compute TransKE all ke
compute RotKE all erotate/shdem
compute PEcalc all efunction/shdem
variable ETotal equal "c_PEcalc + c_TransKE + c_RotKE"
thermo_style custom step c_PEcalc c_TransKE c_RotKE v_ETotal


timestep	0.001

run		15000
Generated 0 of 1 mixed pair_coeff terms from geometric mixing rule
Neighbor list info ...
  update: every = 1 steps, delay = 0 steps, check = yes
  max neighbors/atom: 2000, page size: 100000
  master list distance cutoff = 26.194869
  ghost atom cutoff = 26.194869
  binsize = 13.097434, bins = 4 4 4
  1 neighbor lists, perpetual/occasional/extra = 1 0 0
  (1) pair shdem, perpetual
      attributes: half, newton off
      pair build: half/bin/atomonly/newtoff
      stencil: full/bin/3d
      bin: standard
Per MPI rank memory allocation (min/avg/max) = 4.973 | 4.973 | 4.973 Mbytes
   Step        c_PEcalc      c_TransKE       c_RotKE        v_ETotal   
         0   0              12.5           0              12.5         
         1   0              12.5           0              12.5         
         2   0              12.5           0              12.5         
         3   0              12.5           0              12.5         
         4   0              12.5           0              12.5         
         5   0              12.5           0              12.5         
         6   0              12.5           0              12.5         
         7   0              12.5           0              12.5         
         8   0              12.5           0              12.5         
         9   0              12.5           0              12.5         
        10   0              12.5           0              12.5         
        11   0              12.5           0              12.5         
        12   0              12.5           0              12.5         
        13   0              12.5           0              12.5         
        14   0              12.5           0              12.5         
        15   0              12.5           0              12.5         
        16   0              12.5           0              12.5         
        17   0              12.5           0              12.5         
        18   0              12.5           0              12.5         
        19   0              12.5           0              12.5         
        20   0              12.5           0              12.5         
        21   0              12.5           0              12.5         
        22   0              12.5           0              12.5         
        23   0              12.5           0              12.5         
        24   0              12.5           0              12.5         
        25   0              12.5           0              12.5         
        26   0              12.5           0              12.5         
        27   0              12.5           0              12.5         
        28   0              12.5           0              12.5         
        29   0              12.5           0              12.5         
        30   0              12.5           0              12.5         
        31   0              12.5           0              12.5         
        32   0              12.5           0              12.5         
        33   0              12.5           0              12.5         
        34   0              12.5           0              12.5         
        35   0              12.5           0              12.5         
        36   0              12.5           0              12.5         
        37   0              12.5           0              12.5         
        38   0              12.5           0              12.5         
        39   0              12.5           0              12.5         
        40   0              12.5           0              12.5         
        41   0              12.5           0              12.5         
        42   0              12.5           0              12.5         
        43   0              12.5           0              12.5         
        44   0              12.5           0              12.5         
        45   0              12.5           0              12.5         
        46   0              12.5           0              12.5         
        47   0              12.5           0              12.5         
        48   0              12.5           0              12.5         
        49   0              12.5           0              12.5         
        50   0              12.5           0              12.5         
        51   0              12.5           0              12.5         
        52   0              12.5           0              12.5         
        53   0              12.5           0              12.5         
        54   0              12.5           0              12.5         
        55   0              12.5           0              12.5         
        56   0              12.5           0              12.5         
        57   0              12.5           0              12.5         
        58   0              12.5           0              12.5         
        59   0              12.5           0              12.5         
        60   0              12.5           0              12.5         
        61   0              12.5           0              12.5         
        62   0              12.5           0              12.5         
        63   0              12.5           0              12.5         
        64   0              12.5           0              12.5         
        65   0              12.5           0              12.5         
        66   0              12.5           0              12.5         
        67   0              12.5           0              12.5         
        68   0              12.5           0              12.5         
        69   0              12.5           0              12.5         
        70   0              12.5           0              12.5         
        71   0              12.5           0              12.5         
        72   0              12.5           0              12.5         
        73   0              12.5           0              12.5         
        74   0              12.5           0              12.5         
        75   0              12.5           0              12.5         
        76   0              12.5           0              12.5         
        77   0              12.5           0              12.5         
        78   0              12.5           0              12.5         
        79   0              12.5           0              12.5         
        80   0              12.5           0              12.5         
        81   0              12.5           0              12.5         
        82   0              12.5           0              12.5         
        83   0              12.5           0              12.5         
        84   0              12.5           0              12.5         
        85   0              12.5           0              12.5         
        86   0              12.5           0              12.5         
        87   0              12.5           0              12.5         
        88   0              12.5           0              12.5         
        89   0              12.5           0              12.5         
        90   0              12.5           0              12.5         
        91   0              12.5           0              12.5         
        92   0              12.5           0              12.5         
        93   0              12.5           0              12.5         
        94   0              12.5           0              12.5         
        95   0              12.5           0              12.5         
        96   0              12.5           0              12.5         
        97   0              12.5           0              12.5         
        98   0              12.5           0              12.5         
        99   0              12.5           0              12.5         
       100   0              12.5           0              12.5         
       101   0              12.5           0              12.5         
       102   0              12.5           0              12.5         
       103   0              12.5           0              12.5         
       104   0              12.5           0              12.5         
       105   0              12.5           0              12.5         
       106   0              12.5           0              12.5         
       107   0              12.5           0              12.5         
       108   0              12.5           0              12.5         
       109   0              12.5           0              12.5         
       110   0              12.5           0              12.5         
       111   0              12.5           0              12.5         
       112   0              12.5           0              12.5         
       113   0              12.5           0              12.5         
       114   0              12.5           0              12.5         
       115   0              12.5           0              12.5         
       116   0              12.5           0              12.5         
       117   0              12.5           0              12.5         
       118   0              12.5           0              12.5         
       119   0              12.5           0              12.5         
       120   0              12.5           0              12.5         
       121   0              12.5           0              12.5         
       122   0              12.5           0              12.5         
       123   0              12.5           0              12.5         
       124   0              12.5           0              12.5         
       125   0              12.5           0              12.5         
       126   0              12.5           0              12.5         
       127   0              12.5           0              12.5         
       128   0              12.5           0              12.5         
       129   0              12.5           0              12.5         
       130   0              12.5           0              12.5         
       131   0              12.5           0              12.5         
       132   0              12.5           0              12.5         
       133   0              12.5           0              12.5         
       134   0              12.5           0              12.5         
       135   0              12.5           0              12.5         
       136   0              12.5           0              12.5         
       137   0              12.5           0              12.5         
       138   0              12.5           0              12.5         
       139   0              12.5           0              12.5         
       140   0              12.5           0              12.5         
       141   0              12.5           0              12.5         
       142   0              12.5           0              12.5         
       143   0              12.5           0              12.5         
       144   0              12.5           0              12.5         
       145   0              12.5           0              12.5         
       146   0              12.5           0              12.5         
       147   0              12.5           0              12.5         
       148   0              12.5           0              12.5         
       149   0              12.5           0              12.5         
       150   0              12.5           0              12.5         
       151   0              12.5           0              12.5         
       152   0              12.5           0              12.5         
       153   0              12.5           0              12.5         
       154   0              12.5           0              12.5         
       155   0              12.5           0              12.5         
       156   0              12.5           0              12.5         
       157   0              12.5           0              12.5         
       158   0              12.5           0              12.5         
       159   0              12.5           0              12.5         
       160   0              12.5           0              12.5         
       161   0              12.5           0              12.5         
       162   0              12.5           0              12.5         
       163   0              12.5           0              12.5         
       164   0              12.5           0              12.5         
       165   0              12.5           0              12.5         
       166   0              12.5           0              12.5         
       167   0              12.5           0              12.5         
       168   0              12.5           0              12.5         
       169   0              12.5           0              12.5         
       170   0              12.5           0              12.5         
       171   0              12.5           0              12.5         
       172   0              12.5           0              12.5         
       173   0              12.5           0              12.5         
       174   0              12.5           0              12.5         
       175   0              12.5           0              12.5         
       176   0              12.5           0              12.5         
       177   0              12.5           0              12.5         
       178   0              12.5           0              12.5         
       179   0              12.5           0              12.5         
       180   0              12.5           0              12.5         
       181   0              12.5           0              12.5         
       182   0              12.5           0              12.5         
       183   0              12.5           0              12.5         
       184   0              12.5           0              12.5         
       185   0              12.5           0              12.5         
       186   0              12.5           0              12.5         
       187   0              12.5           0              12.5         
       188   0              12.5           0              12.5         
       189   0              12.5           0              12.5         
       190   0              12.5           0              12.5         
       191   0              12.5           0              12.5         
       192   0              12.5           0              12.5         
       193   0              12.5           0              12.5         
       194   0              12.5           0              12.5         
       195   0              12.5           0              12.5         
       196   0              12.5           0              12.5         
       197   0              12.5           0              12.5         
       198   0              12.5           0              12.5         
       199   0              12.5           0              12.5         
       200   0              12.5           0              12.5         
       201   0              12.5           0              12.5         
       202   0              12.5           0              12.5         
       203   0              12.5           0              12.5         
       204   0              12.5           0              12.5         
       205   0              12.5           0              12.5         
       206   0              12.5           0              12.5         
       207   0              12.5           0              12.5         
       208   0              12.5           0              12.5         
       209   0              12.5           0              12.5         
       210   0              12.5           0              12.5         
       211   0              12.5           0              12.5         
       212   0              12.5           0              12.5         
       213   0              12.5           0              12.5         
       214   0              12.5           0              12.5         
       215   0              12.5           0              12.5         
       216   0              12.5           0              12.5         
       217   0              12.5           0              12.5         
       218   0              12.5           0              12.5         
       219   0              12.5           0              12.5         
       220   0              12.5           0              12.5         
       221   0              12.5           0              12.5         
       222   0              12.5           0              12.5         
       223   0              12.5           0              12.5         
       224   0              12.5           0              12.5         
       225   0              12.5           0              12.5         
       226   0              12.5           0              12.5         
       227   0              12.5           0              12.5         
       228   0              12.5           0              12.5         
       229   0              12.5           0              12.5         
       230   0              12.5           0              12.5         
       231   0              12.5           0              12.5         
       232   0              12.5           0              12.5         
       233   0              12.5           0              12.5         
       234   0              12.5           0              12.5         
       235   0              12.5           0              12.5         
       236   0              12.5           0              12.5         
       237   0              12.5           0              12.5         
       238   0              12.5           0              12.5         
       239   0              12.5           0              12.5         
       240   0              12.5           0              12.5         
       241   0              12.5           0              12.5         
       242   0              12.5           0              12.5         
       243   0              12.5           0              12.5         
       244   0              12.5           0              12.5         
       245   0              12.5           0              12.5         
       246   0              12.5           0              12.5         
       247   0              12.5           0              12.5         
       248   0              12.5           0              12.5         
       249   0              12.5           0              12.5         
       250   0              12.5           0              12.5         
       251   0              12.5           0              12.5         
       252   0              12.5           0              12.5         
       253   0              12.5           0              12.5         
       254   0              12.5           0              12.5         
       255   0              12.5           0              12.5         
       256   0              12.5           0              12.5         
       257   0              12.5           0              12.5         
       258   0              12.5           0              12.5         
       259   0              12.5           0              12.5         
       260   0              12.5           0              12.5         
       261   0              12.5           0              12.5         
       262   0              12.5           0              12.5         
       263   0              12.5           0              12.5         
       264   0              12.5           0              12.5         
       265   0              12.5           0              12.5         
       266   0              12.5           0              12.5         
       267   0              12.5           0              12.5         
       268   0              12.5           0              12.5         
       269   0              12.5           0              12.5         
       270   0              12.5           0              12.5         
       271   0              12.5           0              12.5         
       272   0              12.5           0              12.5         
       273   0              12.5           0              12.5         
       274   0              12.5           0              12.5         
       275   0              12.5           0              12.5         
       276   0              12.5           0              12.5         
       277   0              12.5           0              12.5         
       278   0              12.5           0              12.5         
       279   0              12.5           0              12.5         
       280   0              12.5           0              12.5         
       281   0              12.5           0              12.5         
       282   0              12.5           0              12.5         
       283   0              12.5           0              12.5         
       284   0              12.5           0              12.5         
       285   0              12.5           0              12.5         
       286   0              12.5           0              12.5         
       287   0              12.5           0              12.5         
       288   0              12.5           0              12.5         
       289   0              12.5           0              12.5         
       290   0              12.5           0              12.5         
       291   0              12.5           0              12.5         
       292   0              12.5           0              12.5         
       293   0              12.5           0              12.5         
       294   0              12.5           0              12.5         
       295   0              12.5           0              12.5         
       296   0              12.5           0              12.5         
       297   0              12.5           0              12.5         
       298   0              12.5           0              12.5         
       299   0              12.5           0              12.5         
       300   0              12.5           0              12.5         
       301   0              12.5           0              12.5         
       302   0              12.5           0              12.5         
       303   0              12.5           0              12.5         
       304   0              12.5           0              12.5         
       305   0              12.5           0              12.5         
       306   0              12.5           0              12.5         
       307   0              12.5           0              12.5         
       308   0              12.5           0              12.5         
       309   0              12.5           0              12.5         
       310   0              12.5           0              12.5         
       311   0              12.5           0              12.5         
       312   0              12.5           0              12.5         
       313   0              12.5           0              12.5         
       314   0              12.5           0              12.5         
       315   0              12.5           0              12.5         
       316   0              12.5           0              12.5         
       317   0              12.5           0              12.5         
       318   0              12.5           0              12.5         
       319   0              12.5           0              12.5         
       320   0              12.5           0              12.5         
       321   0              12.5           0              12.5         
       322   0              12.5           0              12.5         
       323   0              12.5           0              12.5         
       324   0              12.5           0              12.5         
       325   0              12.5           0              12.5         
       326   0              12.5           0              12.5         
       327   0              12.5           0              12.5         
       328   0              12.5           0              12.5         
       329   0              12.5           0              12.5         
       330   0              12.5           0              12.5         
       331   0              12.5           0              12.5         
       332   0              12.5           0              12.5         
       333   0              12.5           0              12.5         
       334   0              12.5           0              12.5         
       335   0              12.5           0              12.5         
       336   0              12.5           0              12.5         
       337   0              12.5           0              12.5         
       338   0              12.5           0              12.5         
       339   0              12.5           0              12.5         
       340   0              12.5           0              12.5         
       341   0              12.5           0              12.5         
       342   0              12.5           0              12.5         
       343   0              12.5           0              12.5         
       344   0              12.5           0              12.5         
       345   0              12.5           0              12.5         
       346   0              12.5           0              12.5         
       347   0              12.5           0              12.5         
       348   0              12.5           0              12.5         
       349   0              12.5           0              12.5         
       350   0              12.5           0              12.5         
       351   0              12.5           0              12.5         
       352   0              12.5           0              12.5         
       353   0              12.5           0              12.5         
       354   0              12.5           0              12.5         
       355   0              12.5           0              12.5         
       356   0              12.5           0              12.5         
       357   0              12.5           0              12.5         
       358   0              12.5           0              12.5         
       359   0              12.5           0              12.5         
       360   0              12.5           0              12.5         
       361   0              12.5           0              12.5         
       362   0              12.5           0              12.5         
       363   0              12.5           0              12.5         
       364   0              12.5           0              12.5         
       365   0              12.5           0              12.5         
       366   0              12.5           0              12.5         
       367   0              12.5           0              12.5         
       368   0              12.5           0              12.5         
       369   0              12.5           0              12.5         
       370   0              12.5           0              12.5         
       371   0              12.5           0              12.5         
       372   0              12.5           0              12.5         
       373   0              12.5           0              12.5         
       374   0              12.5           0              12.5         
       375   0              12.5           0              12.5         
       376   0              12.5           0              12.5         
       377   0              12.5           0              12.5         
       378   0              12.5           0              12.5         
       379   0              12.5           0              12.5         
       380   0              12.5           0              12.5         
       381   0              12.5           0              12.5         
       382   0              12.5           0              12.5         
       383   0              12.5           0              12.5         
       384   0              12.5           0              12.5         
       385   0              12.5           0              12.5         
       386   0              12.5           0              12.5         
       387   0              12.5           0              12.5         
       388   0              12.5           0              12.5         
       389   0              12.5           0              12.5         
       390   0              12.5           0              12.5         
       391   0              12.5           0              12.5         
       392   0              12.5           0              12.5         
       393   0              12.5           0              12.5         
       394   0              12.5           0              12.5         
       395   0              12.5           0              12.5         
       396   0              12.5           0              12.5         
       397   0              12.5           0              12.5         
       398   0              12.5           0              12.5         
       399   0              12.5           0              12.5         
       400   0              12.5           0              12.5         
       401   0              12.5           0              12.5         
       402   0              12.5           0              12.5         
       403   0              12.5           0              12.5         
       404   0              12.5           0              12.5         
       405   0              12.5           0              12.5         
       406   0              12.5           0              12.5         
       407   0              12.5           0              12.5         
       408   0              12.5           0              12.5         
       409   0              12.5           0              12.5         
       410   0              12.5           0              12.5         
       411   0              12.5           0              12.5         
       412   0              12.5           0              12.5         
       413   0              12.5           0              12.5         
       414   0              12.5           0              12.5         
       415   0              12.5           0              12.5         
       416   0              12.5           0              12.5         
       417   0              12.5           0              12.5         
       418   0              12.5           0              12.5         
       419   0              12.5           0              12.5         
       420   0              12.5           0              12.5         
       421   0              12.5           0              12.5         
       422   0              12.5           0              12.5         
       423   0              12.5           0              12.5         
       424   0              12.5           0              12.5         
       425   0              12.5           0              12.5         
       426   0              12.5           0              12.5         
       427   0              12.5           0              12.5         
       428   0              12.5           0              12.5         
       429   0              12.5           0              12.5         
       430   0              12.5           0              12.5         
       431   0              12.5           0              12.5         
       432   0              12.5           0              12.5         
       433   0              12.5           0              12.5         
       434   0              12.5           0              12.5         
       435   0              12.5           0              12.5         
       436   0              12.5           0              12.5         
       437   0              12.5           0              12.5         
       438   0              12.5           0              12.5         
       439   0              12.5           0              12.5         
       440   0              12.5           0              12.5         
       441   0              12.5           0              12.5         
       442   0              12.5           0              12.5         
       443   0              12.5           0              12.5         
       444   0              12.5           0              12.5         
       445   0              12.5           0              12.5         
       446   0              12.5           0              12.5         
       447   0              12.5           0              12.5         
       448   0              12.5           0              12.5         
       449   0              12.5           0              12.5         
       450   0              12.5           0              12.5         
       451   0              12.5           0              12.5         
       452   0              12.5           0              12.5         
       453   0              12.5           0              12.5         
       454   0              12.5           0              12.5         
       455   0              12.5           0              12.5         
       456   0              12.5           0              12.5         
       457   0              12.5           0              12.5         
       458   0              12.5           0              12.5         
       459   0              12.5           0              12.5         
       460   0              12.5           0              12.5         
       461   0              12.5           0              12.5         
       462   0              12.5           0              12.5         
       463   0              12.5           0              12.5         
       464   0              12.5           0              12.5         
       465   0              12.5           0              12.5         
       466   0              12.5           0              12.5         
       467   0              12.5           0              12.5         
       468   0              12.5           0              12.5         
       469   0              12.5           0              12.5         
       470   0              12.5           0              12.5         
       471   0              12.5           0              12.5         
       472   0              12.5           0              12.5         
       473   0              12.5           0              12.5         
       474   0              12.5           0              12.5         
       475   0              12.5           0              12.5         
       476   0              12.5           0              12.5         
       477   0              12.5           0              12.5         
       478   0              12.5           0              12.5         
       479   0              12.5           0              12.5         
       480   0              12.5           0              12.5         
       481   0              12.5           0              12.5         
       482   0              12.5           0              12.5         
       483   0              12.5           0              12.5         
       484   0              12.5           0              12.5         
       485   0              12.5           0              12.5         
       486   0              12.5           0              12.5         
       487   0              12.5           0              12.5         
       488   0              12.5           0              12.5         
       489   0              12.5           0              12.5         
       490   0              12.5           0              12.5         
       491   0              12.5           0              12.5         
       492   0              12.5           0              12.5         
       493   0              12.5           0              12.5         
       494   0              12.5           0              12.5         
       495   0              12.5           0              12.5         
       496   0              12.5           0              12.5         
       497   0              12.5           0              12.5         
       498   0              12.5           0              12.5         
       499   0              12.5           0              12.5         
       500   0              12.5           0              12.5         
       501   0              12.5           0              12.5         
       502   0              12.5           0              12.5         
       503   0              12.5           0              12.5         
       504   0              12.5           0              12.5         
       505   0              12.5           0              12.5         
       506   0              12.5           0              12.5         
       507   0              12.5           0              12.5         
       508   0              12.5           0              12.5         
       509   0              12.5           0              12.5         
       510   0              12.5           0              12.5         
       511   0              12.5           0              12.5         
       512   0              12.5           0              12.5         
       513   0              12.5           0              12.5         
       514   0              12.5           0              12.5         
       515   0              12.5           0              12.5         
       516   0              12.5           0              12.5         
       517   0              12.5           0              12.5         
       518   0              12.5           0              12.5         
       519   0              12.5           0              12.5         
       520   0              12.5           0              12.5         
       521   0              12.5           0              12.5         
       522   0              12.5           0              12.5         
       523   0              12.5           0              12.5         
       524   0              12.5           0              12.5         
       525   0              12.5           0              12.5         
       526   0              12.5           0              12.5         
       527   0              12.5           0              12.5         
       528   0              12.5           0              12.5         
       529   0              12.5           0              12.5         
       530   0              12.5           0              12.5         
       531   0              12.5           0              12.5         
       532   0              12.5           0              12.5         
       533   0              12.5           0              12.5         
       534   0              12.5           0              12.5         
       535   0              12.5           0              12.5         
       536   0              12.5           0              12.5         
       537   0              12.5           0              12.5         
       538   0              12.5           0              12.5         
       539   0              12.5           0              12.5         
       540   0              12.5           0              12.5         
       541   0              12.5           0              12.5         
       542   0              12.5           0              12.5         
       543   0              12.5           0              12.5         
       544   0              12.5           0              12.5         
       545   0              12.5           0              12.5         
       546   0              12.5           0              12.5         
       547   0              12.5           0              12.5         
       548   0              12.5           0              12.5         
       549   0              12.5           0              12.5         
       550   0              12.5           0              12.5         
       551   0              12.5           0              12.5         
       552   0              12.5           0              12.5         
       553   0              12.5           0              12.5         
       554   0              12.5           0              12.5         
       555   0              12.5           0              12.5         
       556   0              12.5           0              12.5         
       557   0              12.5           0              12.5         
       558   0              12.5           0              12.5         
       559   0              12.5           0              12.5         
       560   0              12.5           0              12.5         
       561   0              12.5           0              12.5         
       562   0              12.5           0              12.5         
       563   0              12.5           0              12.5         
       564   0              12.5           0              12.5         
       565   0              12.5           0              12.5         
       566   0              12.5           0              12.5         
       567   0              12.5           0              12.5         
       568   0              12.5           0              12.5         
       569   0              12.5           0              12.5         
       570   0              12.5           0              12.5         
       571   0              12.5           0              12.5         
       572   0              12.5           0              12.5         
       573   0              12.5           0              12.5         
       574   0              12.5           0              12.5         
       575   0              12.5           0              12.5         
       576   0              12.5           0              12.5         
       577   0              12.5           0              12.5         
       578   0              12.5           0              12.5         
       579   0              12.5           0              12.5         
       580   0              12.5           0              12.5         
       581   0              12.5           0              12.5         
       582   0              12.5           0              12.5         
       583   0              12.5           0              12.5         
       584   0              12.5           0              12.5         
       585   0              12.5           0              12.5         
       586   0              12.5           0              12.5         
       587   0              12.5           0              12.5         
       588   0              12.5           0              12.5         
       589   0              12.5           0              12.5         
       590   0              12.5           0              12.5         
       591   0              12.5           0              12.5         
       592   0              12.5           0              12.5         
       593   0              12.5           0              12.5         
       594   0              12.5           0              12.5         
       595   0              12.5           0              12.5         
       596   0              12.5           0              12.5         
       597   0              12.5           0              12.5         
       598   0              12.5           0              12.5         
       599   0              12.5           0              12.5         
       600   0              12.5           0              12.5         
       601   0              12.5           0              12.5         
       602   0              12.5           0              12.5         
       603   0              12.5           0              12.5         
       604   0              12.5           0              12.5         
       605   0              12.5           0              12.5         
       606   0              12.5           0              12.5         
       607   0              12.5           0              12.5         
       608   0              12.5           0              12.5         
       609   0              12.5           0              12.5         
       610   0              12.5           0              12.5         
       611   0              12.5           0              12.5         
       612   0              12.5           0              12.5         
       613   0              12.5           0              12.5         
       614   0              12.5           0              12.5         
       615   0              12.5           0              12.5         
       616   0              12.5           0              12.5         
       617   0              12.5           0              12.5         
       618   0              12.5           0              12.5         
       619   0              12.5           0              12.5         
       620   0              12.5           0              12.5         
       621   0              12.5           0              12.5         
       622   0              12.5           0              12.5         
       623   0              12.5           0              12.5         
       624   0              12.5           0              12.5         
       625   0              12.5           0              12.5         
       626   0              12.5           0              12.5         
       627   0              12.5           0              12.5         
       628   0              12.5           0              12.5         
       629   0              12.5           0              12.5         
       630   0              12.5           0              12.5         
       631   0              12.5           0              12.5         
       632   0              12.5           0              12.5         
       633   0              12.5           0              12.5         
       634   0              12.5           0              12.5         
       635   0              12.5           0              12.5         
       636   0              12.5           0              12.5         
       637   0              12.5           0              12.5         
       638   0              12.5           0              12.5         
       639   0              12.5           0              12.5         
       640   0              12.5           0              12.5         
       641   0              12.5           0              12.5         
       642   0              12.5           0              12.5         
       643   0              12.5           0              12.5         
       644   0              12.5           0              12.5         
       645   0              12.5           0              12.5         
       646   0              12.5           0              12.5         
       647   0              12.5           0              12.5         
       648   0              12.5           0              12.5         
       649   0              12.5           0              12.5         
       650   0              12.5           0              12.5         
       651   0              12.5           0              12.5         
       652   0              12.5           0              12.5         
       653   0              12.5           0              12.5         
       654   0              12.5           0              12.5         
       655   0              12.5           0              12.5         
       656   0              12.5           0              12.5         
       657   0              12.5           0              12.5         
       658   0              12.5           0              12.5         
       659   0              12.5           0              12.5         
       660   0              12.5           0              12.5         
       661   0              12.5           0              12.5         
       662   0              12.5           0              12.5         
       663   0              12.5           0              12.5         
       664   0              12.5           0              12.5         
       665   0              12.5           0              12.5         
       666   0              12.5           0              12.5         
       667   0              12.5           0              12.5         
       668   0              12.5           0              12.5         
       669   0              12.5           0              12.5         
       670   0              12.5           0              12.5         
       671   0              12.5           0              12.5         
       672   0              12.5           0              12.5         
       673   0              12.5           0              12.5         
       674   0              12.5           0              12.5         
       675   0              12.5           0              12.5         
       676   0              12.5           0              12.5         
       677   0              12.5           0              12.5         
       678   0              12.5           0              12.5         
       679   0              12.5           0              12.5         
       680   0              12.5           0              12.5         
       681   0              12.5           0              12.5         
       682   0              12.5           0              12.5         
       683   0              12.5           0              12.5         
       684   0              12.5           0              12.5         
       685   0              12.5           0              12.5         
       686   0              12.5           0              12.5         
       687   0              12.5           0              12.5         
       688   0              12.5           0              12.5         
       689   0              12.5           0              12.5         
       690   0              12.5           0              12.5         
       691   0              12.5           0              12.5         
       692   0              12.5           0              12.5         
       693   0              12.5           0              12.5         
       694   0              12.5           0              12.5         
       695   0              12.5           0              12.5         
       696   0              12.5           0              12.5         
       697   0              12.5           0              12.5         
       698   0              12.5           0              12.5         
       699   0              12.5           0              12.5         
       700   0              12.5           0              12.5         
       701   0              12.5           0              12.5         
       702   0              12.5           0              12.5         
       703   0              12.5           0              12.5         
       704   0              12.5           0              12.5         
       705   0              12.5           0              12.5         
       706   0              12.5           0              12.5         
       707   0              12.5           0              12.5         
       708   0              12.5           0              12.5         
       709   0              12.5           0              12.5         
       710   0              12.5           0              12.5         
       711   0              12.5           0              12.5         
       712   0              12.5           0              12.5         
       713   0              12.5           0              12.5         
       714   0              12.5           0              12.5         
       715   0              12.5           0              12.5         
       716   0              12.5           0              12.5         
       717   0              12.5           0              12.5         
       718   0              12.5           0              12.5         
       719   0              12.5           0              12.5         
       720   0              12.5           0              12.5         
       721   0              12.5           0              12.5         
       722   0              12.5           0              12.5         
       723   0              12.5           0              12.5         
       724   0              12.5           0              12.5         
       725   0              12.5           0              12.5         
       726   0              12.5           0              12.5         
       727   0              12.5           0              12.5         
       728   0              12.5           0              12.5         
       729   0              12.5           0              12.5         
       730   0              12.5           0              12.5         
       731   0              12.5           0              12.5         
       732   0              12.5           0              12.5         
       733   0              12.5           0              12.5         
       734   0              12.5           0              12.5         
       735   0              12.5           0              12.5         
       736   0              12.5           0              12.5         
       737   0              12.5           0              12.5         
       738   0              12.5           0              12.5         
       739   0              12.5           0              12.5         
       740   0              12.5           0              12.5         
       741   0              12.5           0              12.5         
       742   0              12.5           0              12.5         
       743   0              12.5           0              12.5         
       744   0              12.5           0              12.5         
       745   0              12.5           0              12.5         
       746   0              12.5           0              12.5         
       747   0              12.5           0              12.5         
       748   0              12.5           0              12.5         
       749   0              12.5           0              12.5         
       750   0              12.5           0              12.5         
       751   0              12.5           0              12.5         
       752   0              12.5           0              12.5         
       753   0              12.5           0              12.5         
       754   0              12.5           0              12.5         
       755   0              12.5           0              12.5         
       756   0              12.5           0              12.5         
       757   0              12.5           0              12.5         
       758   0              12.5           0              12.5         
       759   0              12.5           0              12.5         
       760   0              12.5           0              12.5         
       761   0              12.5           0              12.5         
       762   0              12.5           0              12.5         
       763   0              12.5           0              12.5         
       764   0              12.5           0              12.5         
       765   0              12.5           0              12.5         
       766   0              12.5           0              12.5         
       767   0              12.5           0              12.5         
       768   0              12.5           0              12.5         
       769   0              12.5           0              12.5         
       770   0              12.5           0              12.5         
       771   0              12.5           0              12.5         
       772   0              12.5           0              12.5         
       773   0              12.5           0              12.5         
       774   0              12.5           0              12.5         
       775   0              12.5           0              12.5         
       776   0              12.5           0              12.5         
       777   0              12.5           0              12.5         
       778   0              12.5           0              12.5         
       779   0              12.5           0              12.5         
       780   0              12.5           0              12.5         
       781   0              12.5           0              12.5         
       782   0              12.5           0              12.5         
       783   0              12.5           0              12.5         
       784   0              12.5           0              12.5         
       785   0              12.5           0              12.5         
       786   0              12.5           0              12.5         
       787   0              12.5           0              12.5         
       788   0              12.5           0              12.5         
       789   0              12.5           0              12.5         
       790   0              12.5           0              12.5         
       791   0              12.5           0              12.5         
       792   0              12.5           0              12.5         
       793   0              12.5           0              12.5         
       794   0              12.5           0              12.5         
       795   0              12.5           0              12.5         
       796   0              12.5           0              12.5         
       797   0              12.5           0              12.5         
       798   0              12.5           0              12.5         
       799   0              12.5           0              12.5         
       800   0              12.5           0              12.5         
       801   0              12.5           0              12.5         
       802   0              12.5           0              12.5         
       803   0              12.5           0              12.5         
       804   0              12.5           0              12.5         
       805   0              12.5           0              12.5         
       806   0              12.5           0              12.5         
       807   0              12.5           0              12.5         
       808   0              12.5           0              12.5         
       809   0              12.5           0              12.5         
       810   0              12.5           0              12.5         
       811   0              12.5           0              12.5         
       812   0              12.5           0              12.5         
       813   0              12.5           0              12.5         
       814   0              12.5           0              12.5         
       815   0              12.5           0              12.5         
       816   0              12.5           0              12.5         
       817   0              12.5           0              12.5         
       818   0              12.5           0              12.5         
       819   0              12.5           0              12.5         
       820   0              12.5           0              12.5         
       821   0              12.5           0              12.5         
       822   0              12.5           0              12.5         
       823   0              12.5           0              12.5         
       824   0              12.5           0              12.5         
       825   0              12.5           0              12.5         
       826   0              12.5           0              12.5         
       827   0              12.5           0              12.5         
       828   0              12.5           0              12.5         
       829   0              12.5           0              12.5         
       830   0              12.5           0              12.5         
       831   0              12.5           0              12.5         
       832   0              12.5           0              12.5         
       833   0              12.5           0              12.5         
       834   0              12.5           0              12.5         
       835   0              12.5           0              12.5         
       836   0              12.5           0              12.5         
       837   0              12.5           0              12.5         
       838   0              12.5           0              12.5         
       839   0              12.5           0              12.5         
       840   0              12.5           0              12.5         
       841   0              12.5           0              12.5         
       842   0              12.5           0              12.5         
       843   0              12.5           0              12.5         
       844   0              12.5           0              12.5         
       845   0              12.5           0              12.5         
       846   0              12.5           0              12.5         
       847   0              12.5           0              12.5         
       848   0              12.5           0              12.5         
       849   0              12.5           0              12.5         
       850   0              12.5           0              12.5         
       851   0              12.5           0              12.5         
       852   0              12.5           0              12.5         
       853   0              12.5           0              12.5         
       854   0              12.5           0              12.5         
       855   0              12.5           0              12.5         
       856   0              12.5           0              12.5         
       857   0              12.5           0              12.5         
       858   0              12.5           0              12.5         
       859   0              12.5           0              12.5         
       860   0              12.5           0              12.5         
       861   0              12.5           0              12.5         
       862   0              12.5           0              12.5         
       863   0              12.5           0              12.5         
       864   0              12.5           0              12.5         
       865   0              12.5           0              12.5         
       866   0              12.5           0              12.5         
       867   0              12.5           0              12.5         
       868   0              12.5           0              12.5         
       869   0              12.5           0              12.5         
       870   0              12.5           0              12.5         
       871   0              12.5           0              12.5         
       872   0              12.5           0              12.5         
       873   0              12.5           0              12.5         
       874   0              12.5           0              12.5         
       875   0              12.5           0              12.5         
       876   0              12.5           0              12.5         
       877   0              12.5           0              12.5         
       878   0              12.5           0              12.5         
       879   0              12.5           0              12.5         
       880   0              12.5           0              12.5         
       881   0              12.5           0              12.5         
       882   0              12.5           0              12.5         
       883   0              12.5           0              12.5         
       884   0              12.5           0              12.5         
       885   0              12.5           0              12.5         
       886   0              12.5           0              12.5         
       887   0              12.5           0              12.5         
       888   0              12.5           0              12.5         
       889   0              12.5           0              12.5         
       890   0              12.5           0              12.5         
       891   0              12.5           0              12.5         
       892   0              12.5           0              12.5         
       893   0              12.5           0              12.5         
       894   0              12.5           0              12.5         
       895   0              12.5           0              12.5         
       896   0              12.5           0              12.5         
       897   0              12.5           0              12.5         
       898   0              12.5           0              12.5         
       899   0              12.5           0              12.5         
       900   0              12.5           0              12.5         
       901   0              12.5           0              12.5         
       902   0              12.5           0              12.5         
       903   0              12.5           0              12.5         
       904   0              12.5           0              12.5         
       905   0              12.5           0              12.5         
       906   0              12.5           0              12.5         
       907   0              12.5           0              12.5         
       908   0              12.5           0              12.5         
       909   0              12.5           0              12.5         
       910   0              12.5           0              12.5         
       911   0              12.5           0              12.5         
       912   0              12.5           0              12.5         
       913   0              12.5           0              12.5         
       914   0              12.5           0              12.5         
       915   0              12.5           0              12.5         
       916   0              12.5           0              12.5         
       917   0              12.5           0              12.5         
       918   0              12.5           0              12.5         
       919   0              12.5           0              12.5         
       920   0              12.5           0              12.5         
       921   0              12.5           0              12.5         
       922   0              12.5           0              12.5         
       923   0              12.5           0              12.5         
       924   0              12.5           0              12.5         
       925   0              12.5           0              12.5         
       926   0              12.5           0              12.5         
       927   0              12.5           0              12.5         
       928   0              12.5           0              12.5         
       929   0              12.5           0              12.5         
       930   0              12.5           0              12.5         
       931   0              12.5           0              12.5         
       932   0              12.5           0              12.5         
       933   0              12.5           0              12.5         
       934   0              12.5           0              12.5         
       935   0              12.5           0              12.5         
       936   0              12.5           0              12.5         
       937   0              12.5           0              12.5         
       938   0              12.5           0              12.5         
       939   0              12.5           0              12.5         
       940   0              12.5           0              12.5         
       941   0              12.5           0              12.5         
       942   0              12.5           0              12.5         
       943   0              12.5           0              12.5         
       944   0              12.5           0              12.5         
       945   0              12.5           0              12.5         
       946   0              12.5           0              12.5         
       947   0              12.5           0              12.5         
       948   0              12.5           0              12.5         
       949   0              12.5           0              12.5         
       950   0              12.5           0              12.5         
       951   0              12.5           0              12.5         
       952   0              12.5           0              12.5         
       953   0              12.5           0              12.5         
       954   0              12.5           0              12.5         
       955   0              12.5           0              12.5         
       956   0              12.5           0              12.5         
       957   0              12.5           0              12.5         
       958   0              12.5           0              12.5         
       959   0              12.5           0              12.5         
       960   0              12.5           0              12.5         
       961   0              12.5           0              12.5         
       962   0              12.5           0              12.5         
       963   0              12.5           0              12.5         
       964   0              12.5           0              12.5         
       965   0              12.5           0              12.5         
       966   0              12.5           0              12.5         
       967   0              12.5           0              12.5         
       968   0              12.5           0              12.5         
       969   0              12.5           0              12.5         
       970   0              12.5           0              12.5         
       971   0              12.5           0              12.5         
       972   0              12.5           0              12.5         
       973   0              12.5           0              12.5         
       974   0              12.5           0              12.5         
       975   0              12.5           0              12.5         
       976   0              12.5           0              12.5         
       977   0              12.5           0              12.5         
       978   0              12.5           0              12.5         
       979   0              12.5           0              12.5         
       980   0              12.5           0              12.5         
       981   0              12.5           0              12.5         
       982   0              12.5           0              12.5         
       983   0              12.5           0              12.5         
       984   0              12.5           0              12.5         
       985   0              12.5           0              12.5         
       986   0              12.5           0              12.5         
       987   0              12.5           0              12.5         
       988   0              12.5           0              12.5         
       989   0              12.5           0              12.5         
       990   0              12.5           0              12.5         
       991   0              12.5           0              12.5         
       992   0              12.5           0              12.5         
       993   0              12.5           0              12.5         
       994   0              12.5           0              12.5         
       995   0              12.5           0              12.5         
       996   0              12.5           0              12.5         
       997   0              12.5           0              12.5         
       998   0              12.5           0              12.5         
       999   0              12.5           0              12.5         
      1000   0              12.5           0              12.5         
      1001   0              12.5           0              12.5         
      1002   0              12.5           0              12.5         
      1003   0              12.5           0              12.5         
      1004   0              12.5           0              12.5         
      1005   0              12.5           0              12.5         
      1006   0              12.5           0              12.5         
      1007   0              12.5           0              12.5         
      1008   0              12.5           0              12.5         
      1009   0              12.5           0              12.5         
      1010   0              12.5           0              12.5         
      1011   0              12.5           0              12.5         
      1012   0              12.5           0              12.5         
      1013   0              12.5           0              12.5         
      1014   0              12.5           0              12.5         
      1015   0              12.5           0              12.5         
      1016   0              12.5           0              12.5         
      1017   0              12.5           0              12.5         
      1018   0              12.5           0              12.5         
      1019   0              12.5           0              12.5         
      1020   0              12.5           0              12.5         
      1021   0              12.5           0              12.5         
      1022   0              12.5           0              12.5         
      1023   0              12.5           0              12.5         
      1024   0              12.5           0              12.5         
      1025   0              12.5           0              12.5         
      1026   0              12.5           0              12.5         
      1027   0              12.5           0              12.5         
      1028   0              12.5           0              12.5         
      1029   0              12.5           0              12.5         
      1030   0              12.5           0              12.5         
      1031   0              12.5           0              12.5         
      1032   0              12.5           0              12.5         
      1033   0              12.5           0              12.5         
      1034   0              12.5           0              12.5         
      1035   0              12.5           0              12.5         
      1036   0              12.5           0              12.5         
      1037   0              12.5           0              12.5         
      1038   0              12.5           0              12.5         
      1039   0              12.5           0              12.5         
      1040   0              12.5           0              12.5         
      1041   0              12.5           0              12.5         
      1042   0              12.5           0              12.5         
      1043   0              12.5           0              12.5         
      1044   0              12.5           0              12.5         
      1045   0              12.5           0              12.5         
      1046   0              12.5           0              12.5         
      1047   0              12.5           0              12.5         
      1048   0              12.5           0              12.5         
      1049   0              12.5           0              12.5         
      1050   0              12.5           0              12.5         
      1051   0              12.5           0              12.5         
      1052   0              12.5           0              12.5         
      1053   0              12.5           0              12.5         
      1054   0              12.5           0              12.5         
      1055   0              12.5           0              12.5         
      1056   0              12.5           0              12.5         
      1057   0              12.5           0              12.5         
      1058   0              12.5           0              12.5         
      1059   0              12.5           0              12.5         
      1060   0              12.5           0              12.5         
      1061   0              12.5           0              12.5         
      1062   0              12.5           0              12.5         
      1063   0              12.5           0              12.5         
      1064   0              12.5           0              12.5         
      1065   0              12.5           0              12.5         
      1066   0              12.5           0              12.5         
      1067   0              12.5           0              12.5         
      1068   0              12.5           0              12.5         
      1069   0              12.5           0              12.5         
      1070   0              12.5           0              12.5         
      1071   0              12.5           0              12.5         
      1072   0              12.5           0              12.5         
      1073   0              12.5           0              12.5         
      1074   0              12.5           0              12.5         
      1075   0              12.5           0              12.5         
      1076   0              12.5           0              12.5         
      1077   0              12.5           0              12.5         
      1078   0              12.5           0              12.5         
[...]
     14738  -0.002041157    9.7078301      2.7936882      12.499477    
     14739  -0.002041157    9.7078301      2.7936882      12.499477    
     14740  -0.002041157    9.7078301      2.7936882      12.499477    
     14741  -0.002041157    9.7078301      2.7936882      12.499477    
     14742  -0.002041157    9.7078301      2.7936882      12.499477    
     14743  -0.002041157    9.7078301      2.7936882      12.499477    
     14744  -0.002041157    9.7078301      2.7936882      12.499477    
     14745  -0.002041157    9.7078301      2.7936882      12.499477    
     14746  -0.002041157    9.7078301      2.7936882      12.499477    
     14747  -0.002041157    9.7078301      2.7936882      12.499477    
     14748  -0.002041157    9.7078301      2.7936882      12.499477    
     14749  -0.002041157    9.7078301      2.7936882      12.499477    
     14750  -0.002041157    9.7078301      2.7936882      12.499477    
     14751  -0.002041157    9.7078301      2.7936882      12.499477    
     14752  -0.002041157    9.7078301      2.7936882      12.499477    
     14753  -0.002041157    9.7078301      2.7936882      12.499477    
     14754  -0.002041157    9.7078301      2.7936882      12.499477    
     14755  -0.002041157    9.7078301      2.7936882      12.499477    
     14756  -0.002041157    9.7078301      2.7936882      12.499477    
     14757  -0.002041157    9.7078301      2.7936882      12.499477    
     14758  -0.002041157    9.7078301      2.7936882      12.499477    
     14759  -0.002041157    9.7078301      2.7936882      12.499477    
     14760  -0.002041157    9.7078301      2.7936882      12.499477    
     14761  -0.002041157    9.7078301      2.7936882      12.499477    
     14762  -0.002041157    9.7078301      2.7936882      12.499477    
     14763  -0.002041157    9.7078301      2.7936882      12.499477    
     14764  -0.002041157    9.7078301      2.7936882      12.499477    
     14765  -0.002041157    9.7078301      2.7936882      12.499477    
     14766  -0.002041157    9.7078301      2.7936882      12.499477    
     14767  -0.002041157    9.7078301      2.7936882      12.499477    
     14768  -0.002041157    9.7078301      2.7936882      12.499477    
     14769  -0.002041157    9.7078301      2.7936882      12.499477    
     14770  -0.002041157    9.7078301      2.7936882      12.499477    
     14771  -0.002041157    9.7078301      2.7936882      12.499477    
     14772  -0.002041157    9.7078301      2.7936882      12.499477    
     14773  -0.002041157    9.7078301      2.7936882      12.499477    
     14774  -0.002041157    9.7078301      2.7936882      12.499477    
     14775  -0.002041157    9.7078301      2.7936882      12.499477    
     14776  -0.002041157    9.7078301      2.7936882      12.499477    
     14777  -0.002041157    9.7078301      2.7936882      12.499477    
     14778  -0.002041157    9.7078301      2.7936882      12.499477    
     14779  -0.002041157    9.7078301      2.7936882      12.499477    
     14780  -0.002041157    9.7078301      2.7936882      12.499477    
     14781  -0.002041157    9.7078301      2.7936882      12.499477    
     14782  -0.002041157    9.7078301      2.7936882      12.499477    
     14783  -0.002041157    9.7078301      2.7936882      12.499477    
     14784  -0.002041157    9.7078301      2.7936882      12.499477    
     14785  -0.002041157    9.7078301      2.7936882      12.499477    
     14786  -0.002041157    9.7078301      2.7936882      12.499477    
     14787  -0.002041157    9.7078301      2.7936882      12.499477    
     14788  -0.002041157    9.7078301      2.7936882      12.499477    
     14789  -0.002041157    9.7078301      2.7936882      12.499477    
     14790  -0.002041157    9.7078301      2.7936882      12.499477    
     14791  -0.002041157    9.7078301      2.7936882      12.499477    
     14792  -0.002041157    9.7078301      2.7936882      12.499477    
     14793  -0.002041157    9.7078301      2.7936882      12.499477    
     14794  -0.002041157    9.7078301      2.7936882      12.499477    
     14795  -0.002041157    9.7078301      2.7936882      12.499477    
     14796  -0.002041157    9.7078301      2.7936882      12.499477    
     14797  -0.002041157    9.7078301      2.7936882      12.499477    
     14798  -0.002041157    9.7078301      2.7936882      12.499477    
     14799  -0.002041157    9.7078301      2.7936882      12.499477    
     14800  -0.002041157    9.7078301      2.7936882      12.499477    
     14801  -0.002041157    9.7078301      2.7936882      12.499477    
     14802  -0.002041157    9.7078301      2.7936882      12.499477    
     14803  -0.002041157    9.7078301      2.7936882      12.499477    
     14804  -0.002041157    9.7078301      2.7936882      12.499477    
     14805  -0.002041157    9.7078301      2.7936882      12.499477    
     14806  -0.002041157    9.7078301      2.7936882      12.499477    
     14807  -0.002041157    9.7078301      2.7936882      12.499477    
     14808  -0.002041157    9.7078301      2.7936882      12.499477    
     14809  -0.002041157    9.7078301      2.7936882      12.499477    
     14810  -0.002041157    9.7078301      2.7936882      12.499477    
     14811  -0.002041157    9.7078301      2.7936882      12.499477    
     14812  -0.002041157    9.7078301      2.7936882      12.499477    
     14813  -0.002041157    9.7078301      2.7936882      12.499477    
     14814  -0.002041157    9.7078301      2.7936882      12.499477    
     14815  -0.002041157    9.7078301      2.7936882      12.499477    
     14816  -0.002041157    9.7078301      2.7936882      12.499477    
     14817  -0.002041157    9.7078301      2.7936882      12.499477    
     14818  -0.002041157    9.7078301      2.7936882      12.499477    
     14819  -0.002041157    9.7078301      2.7936882      12.499477    
     14820  -0.002041157    9.7078301      2.7936882      12.499477    
     14821  -0.002041157    9.7078301      2.7936882      12.499477    
     14822  -0.002041157    9.7078301      2.7936882      12.499477    
     14823  -0.002041157    9.7078301      2.7936882      12.499477    
     14824  -0.002041157    9.7078301      2.7936882      12.499477    
     14825  -0.002041157    9.7078301      2.7936882      12.499477    
     14826  -0.002041157    9.7078301      2.7936882      12.499477    
     14827  -0.002041157    9.7078301      2.7936882      12.499477    
     14828  -0.002041157    9.7078301      2.7936882      12.499477    
     14829  -0.002041157    9.7078301      2.7936882      12.499477    
     14830  -0.002041157    9.7078301      2.7936882      12.499477    
     14831  -0.002041157    9.7078301      2.7936882      12.499477    
     14832  -0.002041157    9.7078301      2.7936882      12.499477    
     14833  -0.002041157    9.7078301      2.7936882      12.499477    
     14834  -0.002041157    9.7078301      2.7936882      12.499477    
     14835  -0.002041157    9.7078301      2.7936882      12.499477    
     14836  -0.002041157    9.7078301      2.7936882      12.499477    
     14837  -0.002041157    9.7078301      2.7936882      12.499477    
     14838  -0.002041157    9.7078301      2.7936882      12.499477    
     14839  -0.002041157    9.7078301      2.7936882      12.499477    
     14840  -0.002041157    9.7078301      2.7936882      12.499477    
     14841  -0.002041157    9.7078301      2.7936882      12.499477    
     14842  -0.002041157    9.7078301      2.7936882      12.499477    
     14843  -0.002041157    9.7078301      2.7936882      12.499477    
     14844  -0.002041157    9.7078301      2.7936882      12.499477    
     14845  -0.002041157    9.7078301      2.7936882      12.499477    
     14846  -0.002041157    9.7078301      2.7936882      12.499477    
     14847  -0.002041157    9.7078301      2.7936882      12.499477    
     14848  -0.002041157    9.7078301      2.7936882      12.499477    
     14849  -0.002041157    9.7078301      2.7936882      12.499477    
     14850  -0.002041157    9.7078301      2.7936882      12.499477    
     14851  -0.002041157    9.7078301      2.7936882      12.499477    
     14852  -0.002041157    9.7078301      2.7936882      12.499477    
     14853  -0.002041157    9.7078301      2.7936882      12.499477    
     14854  -0.002041157    9.7078301      2.7936882      12.499477    
     14855  -0.002041157    9.7078301      2.7936882      12.499477    
     14856  -0.002041157    9.7078301      2.7936882      12.499477    
     14857  -0.002041157    9.7078301      2.7936882      12.499477    
     14858  -0.002041157    9.7078301      2.7936882      12.499477    
     14859  -0.002041157    9.7078301      2.7936882      12.499477    
     14860  -0.002041157    9.7078301      2.7936882      12.499477    
     14861  -0.002041157    9.7078301      2.7936882      12.499477    
     14862  -0.002041157    9.7078301      2.7936882      12.499477    
     14863  -0.002041157    9.7078301      2.7936882      12.499477    
     14864  -0.002041157    9.7078301      2.7936882      12.499477    
     14865  -0.002041157    9.7078301      2.7936882      12.499477    
     14866  -0.002041157    9.7078301      2.7936882      12.499477    
     14867  -0.002041157    9.7078301      2.7936882      12.499477    
     14868  -0.002041157    9.7078301      2.7936882      12.499477    
     14869  -0.002041157    9.7078301      2.7936882      12.499477    
     14870  -0.002041157    9.7078301      2.7936882      12.499477    
     14871  -0.002041157    9.7078301      2.7936882      12.499477    
     14872  -0.002041157    9.7078301      2.7936882      12.499477    
     14873  -0.002041157    9.7078301      2.7936882      12.499477    
     14874  -0.002041157    9.7078301      2.7936882      12.499477    
     14875  -0.002041157    9.7078301      2.7936882      12.499477    
     14876  -0.002041157    9.7078301      2.7936882      12.499477    
     14877  -0.002041157    9.7078301      2.7936882      12.499477    
     14878  -0.002041157    9.7078301      2.7936882      12.499477    
     14879  -0.002041157    9.7078301      2.7936882      12.499477    
     14880  -0.002041157    9.7078301      2.7936882      12.499477    
     14881  -0.002041157    9.7078301      2.7936882      12.499477    
     14882  -0.002041157    9.7078301      2.7936882      12.499477    
     14883  -0.002041157    9.7078301      2.7936882      12.499477    
     14884  -0.002041157    9.7078301      2.7936882      12.499477    
     14885  -0.002041157    9.7078301      2.7936882      12.499477    
     14886  -0.002041157    9.7078301      2.7936882      12.499477    
     14887  -0.002041157    9.7078301      2.7936882      12.499477    
     14888  -0.002041157    9.7078301      2.7936882      12.499477    
     14889  -0.002041157    9.7078301      2.7936882      12.499477    
     14890  -0.002041157    9.7078301      2.7936882      12.499477    
     14891  -0.002041157    9.7078301      2.7936882      12.499477    
     14892  -0.002041157    9.7078301      2.7936882      12.499477    
     14893  -0.002041157    9.7078301      2.7936882      12.499477    
     14894  -0.002041157    9.7078301      2.7936882      12.499477    
     14895  -0.002041157    9.7078301      2.7936882      12.499477    
     14896  -0.002041157    9.7078301      2.7936882      12.499477    
     14897  -0.002041157    9.7078301      2.7936882      12.499477    
     14898  -0.002041157    9.7078301      2.7936882      12.499477    
     14899  -0.002041157    9.7078301      2.7936882      12.499477    
     14900  -0.002041157    9.7078301      2.7936882      12.499477    
     14901  -0.002041157    9.7078301      2.7936882      12.499477    
     14902  -0.002041157    9.7078301      2.7936882      12.499477    
     14903  -0.002041157    9.7078301      2.7936882      12.499477    
     14904  -0.002041157    9.7078301      2.7936882      12.499477    
     14905  -0.002041157    9.7078301      2.7936882      12.499477    
     14906  -0.002041157    9.7078301      2.7936882      12.499477    
     14907  -0.002041157    9.7078301      2.7936882      12.499477    
     14908  -0.002041157    9.7078301      2.7936882      12.499477    
     14909  -0.002041157    9.7078301      2.7936882      12.499477    
     14910  -0.002041157    9.7078301      2.7936882      12.499477    
     14911  -0.002041157    9.7078301      2.7936882      12.499477    
     14912  -0.002041157    9.7078301      2.7936882      12.499477    
     14913  -0.002041157    9.7078301      2.7936882      12.499477    
     14914  -0.002041157    9.7078301      2.7936882      12.499477    
     14915  -0.002041157    9.7078301      2.7936882      12.499477    
     14916  -0.002041157    9.7078301      2.7936882      12.499477    
     14917  -0.002041157    9.7078301      2.7936882      12.499477    
     14918  -0.002041157    9.7078301      2.7936882      12.499477    
     14919  -0.002041157    9.7078301      2.7936882      12.499477    
     14920  -0.002041157    9.7078301      2.7936882      12.499477    
     14921  -0.002041157    9.7078301      2.7936882      12.499477    
     14922  -0.002041157    9.7078301      2.7936882      12.499477    
     14923  -0.002041157    9.7078301      2.7936882      12.499477    
     14924  -0.002041157    9.7078301      2.7936882      12.499477    
     14925  -0.002041157    9.7078301      2.7936882      12.499477    
     14926  -0.002041157    9.7078301      2.7936882      12.499477    
     14927  -0.002041157    9.7078301      2.7936882      12.499477    
     14928  -0.002041157    9.7078301      2.7936882      12.499477    
     14929  -0.002041157    9.7078301      2.7936882      12.499477    
     14930  -0.002041157    9.7078301      2.7936882      12.499477    
     14931  -0.002041157    9.7078301      2.7936882      12.499477    
     14932  -0.002041157    9.7078301      2.7936882      12.499477    
     14933  -0.002041157    9.7078301      2.7936882      12.499477    
     14934  -0.002041157    9.7078301      2.7936882      12.499477    
     14935  -0.002041157    9.7078301      2.7936882      12.499477    
     14936  -0.002041157    9.7078301      2.7936882      12.499477    
     14937  -0.002041157    9.7078301      2.7936882      12.499477    
     14938  -0.002041157    9.7078301      2.7936882      12.499477    
     14939  -0.002041157    9.7078301      2.7936882      12.499477    
     14940  -0.002041157    9.7078301      2.7936882      12.499477    
     14941  -0.002041157    9.7078301      2.7936882      12.499477    
     14942  -0.002041157    9.7078301      2.7936882      12.499477    
     14943  -0.002041157    9.7078301      2.7936882      12.499477    
     14944  -0.002041157    9.7078301      2.7936882      12.499477    
     14945  -0.002041157    9.7078301      2.7936882      12.499477    
     14946  -0.002041157    9.7078301      2.7936882      12.499477    
     14947  -0.002041157    9.7078301      2.7936882      12.499477    
     14948  -0.002041157    9.7078301      2.7936882      12.499477    
     14949  -0.002041157    9.7078301      2.7936882      12.499477    
     14950  -0.002041157    9.7078301      2.7936882      12.499477    
     14951  -0.002041157    9.7078301      2.7936882      12.499477    
     14952  -0.002041157    9.7078301      2.7936882      12.499477    
     14953  -0.002041157    9.7078301      2.7936882      12.499477    
     14954  -0.002041157    9.7078301      2.7936882      12.499477    
     14955  -0.002041157    9.7078301      2.7936882      12.499477    
     14956  -0.002041157    9.7078301      2.7936882      12.499477    
     14957  -0.002041157    9.7078301      2.7936882      12.499477    
     14958  -0.002041157    9.7078301      2.7936882      12.499477    
     14959  -0.002041157    9.7078301      2.7936882      12.499477    
     14960  -0.002041157    9.7078301      2.7936882      12.499477    
     14961  -0.002041157    9.7078301      2.7936882      12.499477    
     14962  -0.002041157    9.7078301      2.7936882      12.499477    
     14963  -0.002041157    9.7078301      2.7936882      12.499477    
     14964  -0.002041157    9.7078301      2.7936882      12.499477    
     14965  -0.002041157    9.7078301      2.7936882      12.499477    
     14966  -0.002041157    9.7078301      2.7936882      12.499477    
     14967  -0.002041157    9.7078301      2.7936882      12.499477    
     14968  -0.002041157    9.7078301      2.7936882      12.499477    
     14969  -0.002041157    9.7078301      2.7936882      12.499477    
     14970  -0.002041157    9.7078301      2.7936882      12.499477    
     14971  -0.002041157    9.7078301      2.7936882      12.499477    
     14972  -0.002041157    9.7078301      2.7936882      12.499477    
     14973  -0.002041157    9.7078301      2.7936882      12.499477    
     14974  -0.002041157    9.7078301      2.7936882      12.499477    
     14975  -0.002041157    9.7078301      2.7936882      12.499477    
     14976  -0.002041157    9.7078301      2.7936882      12.499477    
     14977  -0.002041157    9.7078301      2.7936882      12.499477    
     14978  -0.002041157    9.7078301      2.7936882      12.499477    
     14979  -0.002041157    9.7078301      2.7936882      12.499477    
     14980  -0.002041157    9.7078301      2.7936882      12.499477    
     14981  -0.002041157    9.7078301      2.7936882      12.499477    
     14982  -0.002041157    9.7078301      2.7936882      12.499477    
     14983  -0.002041157    9.7078301      2.7936882      12.499477    
     14984  -0.002041157    9.7078301      2.7936882      12.499477    
     14985  -0.002041157    9.7078301      2.7936882      12.499477    
     14986  -0.002041157    9.7078301      2.7936882      12.499477    
     14987  -0.002041157    9.7078301      2.7936882      12.499477    
     14988  -0.002041157    9.7078301      2.7936882      12.499477    
     14989  -0.002041157    9.7078301      2.7936882      12.499477    
     14990  -0.002041157    9.7078301      2.7936882      12.499477    
     14991  -0.002041157    9.7078301      2.7936882      12.499477    
     14992  -0.002041157    9.7078301      2.7936882      12.499477    
     14993  -0.002041157    9.7078301      2.7936882      12.499477    
     14994  -0.002041157    9.7078301      2.7936882      12.499477    
     14995  -0.002041157    9.7078301      2.7936882      12.499477    
     14996  -0.002041157    9.7078301      2.7936882      12.499477    
     14997  -0.002041157    9.7078301      2.7936882      12.499477    
     14998  -0.002041157    9.7078301      2.7936882      12.499477    
     14999  -0.002041157    9.7078301      2.7936882      12.499477    
     15000  -0.002041157    9.7078301      2.7936882      12.499477    
Loop time of 1423.69 on 1 procs for 15000 steps with 1 atoms

99.5% CPU use with 1 MPI tasks x no OpenMP threads

MPI task timing breakdown:
Section |  min time  |  avg time  |  max time  |%varavg| %total
---------------------------------------------------------------
Pair    | 0.01385    | 0.01385    | 0.01385    |   0.0 |  0.00
Neigh   | 0.003055   | 0.003055   | 0.003055   |   0.0 |  0.00
Comm    | 0.014905   | 0.014905   | 0.014905   |   0.0 |  0.00
Output  | 0.52273    | 0.52273    | 0.52273    |   0.0 |  0.04
Modify  | 1423       | 1423       | 1423       |   0.0 | 99.96
Other   |            | 0.08581    |            |       |  0.01

Nlocal:              1 ave           1 max           1 min
Histogram: 1 0 0 0 0 0 0 0 0 0
Nghost:              0 ave           0 max           0 min
Histogram: 1 0 0 0 0 0 0 0 0 0
Neighs:              0 ave           0 max           0 min
Histogram: 1 0 0 0 0 0 0 0 0 0

Total # of neighbors = 0
Ave neighs/atom = 0
Neighbor list builds = 1151
Dangerous builds = 0
Total wall time: 0:23:44
