LAMMPS (21 Nov 2023 - Development - stable_29Oct2020-13896-gaf03d5760a-modified)
# Test

atom_style	shdem 10	120 A-anm-00001.dat
units		si
newton off

###############################################
# Geometry-related parameters
###############################################

variable	boxx equal 100
variable	boxy equal 100
variable	boxz equal 100


#############
processors * * 1
region		boxreg block 0 ${boxx} 0 ${boxy} 0 ${boxz}
region		boxreg block 0 100 0 ${boxy} 0 ${boxz}
region		boxreg block 0 100 0 100 0 ${boxz}
region		boxreg block 0 100 0 100 0 100
create_box	2 boxreg
Created orthogonal box = (0 0 0) to (100 100 100)
  1 by 1 by 1 MPI processor grid
change_box	all boundary f f f
Changing box ...

create_atoms 	1 single 34.5 50.0 50.0
Created 1 atoms
  using lattice units in orthogonal box = (0 0 0) to (100 100 100)
  create_atoms CPU = 0.000 seconds
create_atoms 	2 single 52.5 50.0 50.0
Created 1 atoms
  using lattice units in orthogonal box = (0 0 0) to (100 100 100)
  create_atoms CPU = 0.001 seconds

set 		atom 1 vx 1.0 vy 0.0 vz 0.0
Setting atom values ...
  1 settings made for vx
  1 settings made for vy
  1 settings made for vz
set 		atom 2 vx -1.0 vy 0.0 vz 0.0
Setting atom values ...
  1 settings made for vx
  1 settings made for vy
  1 settings made for vz

set		atom 1 sh/shape 1
Setting atom values ...
  1 settings made for sh/shape
set		atom 2 sh/shape 1
Setting atom values ...
  1 settings made for sh/shape
set		group all sh/quat/random 4
Setting atom values ...
  2 settings made for sh/quat/random

fix		time_fix all nve/sh

neigh_modify	delay 0 every 1 check yes
comm_modify	vel yes

thermo 1

compute TransKE all ke
compute RotKE all erotate/shdem
compute PEcalc all efunction/shdem
variable ETotal equal "c_PEcalc + c_TransKE + c_RotKE"
variable ERot equal "C_RotKE"
thermo_style custom step c_PEcalc c_TransKE c_RotKE v_ETotal

pair_style 	shdem
pair_coeff 	* * 5.0e-2 2.0  30

timestep	1.0e-3
variable 	step equal step
run		1000
Generated 0 of 1 mixed pair_coeff terms from geometric mixing rule
Neighbor list info ...
  update: every = 1 steps, delay = 0 steps, check = yes
  max neighbors/atom: 2000, page size: 100000
  master list distance cutoff = 24.157971
  ghost atom cutoff = 24.157971
  binsize = 12.078986, bins = 9 9 9
  1 neighbor lists, perpetual/occasional/extra = 1 0 0
  (1) pair shdem, perpetual
      attributes: half, newton off
      pair build: half/bin/atomonly/newtoff
      stencil: full/bin/3d
      bin: standard
Per MPI rank memory allocation (min/avg/max) = 5.356 | 5.356 | 5.356 Mbytes
   Step        c_PEcalc      c_TransKE       c_RotKE        v_ETotal   
         0   0              1              0              1            
         1   0              1              0              1            
         2   0              1              0              1            
         3   0              1              0              1            
         4   0              1              0              1            
         5   0              1              0              1            
         6   0              1              0              1            
         7   0              1              0              1            
         8   0              1              0              1            
         9   0              1              0              1            
        10   0              1              0              1            
        11   0              1              0              1            
        12   0              1              0              1            
        13   0              1              0              1            
        14   0              1              0              1            
        15   0              1              0              1            
        16   0              1              0              1            
        17   0              1              0              1            
        18   0              1              0              1            
        19   0              1              0              1            
        20   0              1              0              1            
        21   0              1              0              1            
        22   0              1              0              1            
        23   0              1              0              1            
        24   0              1              0              1            
        25   0              1              0              1            
        26   0              1              0              1            
        27   0              1              0              1            
        28   0              1              0              1            
        29   0              1              0              1            
        30   0              1              0              1            
        31   0              1              0              1            
        32   0              1              0              1            
        33   0              1              0              1            
        34   0              1              0              1            
        35   0              1              0              1            
        36   0              1              0              1            
        37   0              1              0              1            
        38   0              1              0              1            
        39   0              1              0              1            
        40   0              1              0              1            
        41   0              1              0              1            
        42   0              1              0              1            
        43   0              1              0              1            
        44   0              1              0              1            
        45   0              1              0              1            
        46   0              1              0              1            
        47   0              1              0              1            
        48   0              1              0              1            
        49   0              1              0              1            
        50   0              1              0              1            
        51   0              1              0              1            
        52   0              1              0              1            
        53   0              1              0              1            
        54   0              1              0              1            
        55   0              1              0              1            
        56   0              1              0              1            
        57   0              1              0              1            
        58   0              1              0              1            
        59   0              1              0              1            
        60   0              1              0              1            
        61   0              1              0              1            
        62   0              1              0              1            
        63   0              1              0              1            
        64   0              1              0              1            
        65   0              1              0              1            
        66   0              1              0              1            
        67   0              1              0              1            
        68   0              1              0              1            
        69   0              1              0              1            
        70   0              1              0              1            
        71   0              1              0              1            
        72   0              1              0              1            
        73   0              1              0              1            
        74   0              1              0              1            
        75   0              1              0              1            
        76   0              1              0              1            
        77   0              1              0              1            
        78   0              1              0              1            
        79   0              1              0              1            
        80   0              1              0              1            
        81   0              1              0              1            
        82   0              1              0              1            
        83   0              1              0              1            
        84   0              1              0              1            
        85   0              1              0              1            
        86   0              1              0              1            
        87   0              1              0              1            
        88   0              1              0              1            
        89   0              1              0              1            
        90   0              1              0              1            
        91   0              1              0              1            
        92   0              1              0              1            
        93   0              1              0              1            
        94   0              1              0              1            
        95   0              1              0              1            
        96   0              1              0              1            
        97   0              1              0              1            
        98   0              1              0              1            
        99   0              1              0              1            
       100   0              1              0              1            
       101   0              1              0              1            
       102   0              1              0              1            
       103   0              1              0              1            
       104   0              1              0              1            
       105   0              1              0              1            
       106   0              1              0              1            
       107   0              1              0              1            
       108   0              1              0              1            
       109   0              1              0              1            
       110   0              1              0              1            
       111   0              1              0              1            
       112   0              1              0              1            
       113   0              1              0              1            
       114   0              1              0              1            
       115   0              1              0              1            
       116   0              1              0              1            
       117   0              1              0              1            
       118   0              1              0              1            
       119   0              1              0              1            
       120   0              1              0              1            
       121   0              1              0              1            
       122   0              1              0              1            
       123   0              1              0              1            
       124   0              1              0              1            
       125   0              1              0              1            
       126   0              1              0              1            
       127   0              1              0              1            
       128   0              1              0              1            
       129   0              1              0              1            
       130   0              1              0              1            
       131   0              1              0              1            
       132   0              1              0              1            
       133   0              1              0              1            
       134   0              1              0              1            
       135   0              1              0              1            
       136   0              1              0              1            
       137   0              1              0              1            
       138   0              1              0              1            
       139   0              1              0              1            
       140   0              1              0              1            
       141   0              1              0              1            
       142   5.4447147e-07  0.99999946     3.364086e-14   1            
       143   1.8657544e-06  0.99999813     3.9466427e-13  1            
       144   3.5903675e-06  0.99999641     1.4613231e-12  1            
       145   5.6900729e-06  0.99999431     3.6775357e-12  1            
       146   8.2105012e-06  0.99999179     7.6636468e-12  1            
       147   1.1250924e-05  0.99998875     1.4376409e-11  1            
       148   1.4998598e-05  0.999985       2.5502844e-11  1            
       149   1.9571667e-05  0.99998043     4.3300414e-11  1            
       150   2.4932405e-05  0.99997507     7.0115315e-11  1            
       151   3.1080939e-05  0.99996892     1.088855e-10   1            
       152   3.8102123e-05  0.9999619      1.6348868e-10  1            
       153   4.5807287e-05  0.99995419     2.3615862e-10  1            
       154   5.4603579e-05  0.9999454      3.3519792e-10  1            
       155   6.4851639e-05  0.99993515     4.7188526e-10  1            
       156   7.6489609e-05  0.99992351     6.5578686e-10  1            
       157   8.9416719e-05  0.99991058     8.9599771e-10  1            
       158   0.00010376706  0.99989623     1.2050894e-09  1            
       159   0.0001196018   0.9998804      1.5976897e-09  1            
       160   0.00013704067  0.99986296     2.0937214e-09  1            
       161   0.00015614713  0.99984385     2.7137507e-09  1            
       162   0.0001767796   0.99982322     3.472125e-09   1            
       163   0.00019897197  0.99980102     4.390526e-09   1            
       164   0.0002230124   0.99977698     5.5058123e-09  1            
       165   0.0002503251   0.99974967     6.9257797e-09  1            
       166   0.00028091997  0.99971907     8.7127815e-09  1            
       167   0.0003144164   0.99968557     1.0908366e-08  1            
       168   0.00035169291  0.99964829     1.3623475e-08  1            
       169   0.00039255815  0.99960742     1.6904315e-08  1            
       170   0.00043655074  0.99956343     2.0806663e-08  1            
       171   0.00048520331  0.99951477     2.5554676e-08  1            
       172   0.00054046043  0.99945951     3.1481541e-08  1            
       173   0.00060137674  0.99939858     3.8679544e-08  1            
       174   0.00066604077  0.99933391     4.7096075e-08  1            
       175   0.00073612004  0.99926382     5.7041776e-08  1            
       176   0.00081298715  0.99918694     6.8870343e-08  1            
       177   0.00089806108  0.99910186     8.3162687e-08  1            
       178   0.00099183856  0.99900806     1.0032746e-07  1            
       179   0.0010936168   0.99890626     1.2059512e-07  1            
       180   0.0012036609   0.99879619     1.4457648e-07  1            
       181   0.001323511    0.99867632     1.7303069e-07  1            
       182   0.0014544926   0.9985453      2.0670766e-07  1            
       183   0.0015937935   0.99840596     2.4566543e-07  1            
       184   0.0017420363   0.99825767     2.9068116e-07  1            
       185   0.0019012511   0.9980984      3.4310793e-07  1            
       186   0.0020724646   0.99792713     4.0399253e-07  1            
       187   0.0022574288   0.99774209     4.747698e-07   1            
       188   0.002455471    0.99754397     5.5646254e-07  1            
       189   0.0026668905   0.99733246     6.5043699e-07  1            
       190   0.0028952294   0.99710401     7.6005424e-07  1            
       191   0.003140516    0.99685859     8.8716658e-07  1            
       192   0.0034014509   0.99659751     1.0326864e-06  1            
       193   0.0036811774   0.99631762     1.2003403e-06  1            
       194   0.0039771067   0.9960215      1.3911782e-06  0.99999999   
       195   0.0042859298   0.99571246     1.6056912e-06  0.99999999   
       196   0.0046098808   0.99538826     1.8473588e-06  0.99999999   
       197   0.0049540188   0.99504385     2.1221561e-06  0.99999999   
       198   0.005321608    0.99467594     2.4360165e-06  0.99999999   
       199   0.0057105167   0.99428668     2.7904662e-06  0.99999999   
       200   0.0061164826   0.99388031     3.1854841e-06  0.99999998   
       201   0.0065431305   0.99345322     3.6277025e-06  0.99999998   
       202   0.0069908865   0.99300497     4.1216328e-06  0.99999997   
       203   0.007461312    0.99253398     4.6758954e-06  0.99999997   
       204   0.0079609672   0.9920337      5.3032704e-06  0.99999997   
       205   0.0084872181   0.99150674     6.005547e-06   0.99999996   
       206   0.0090391816   0.99095399     6.790141e-06   0.99999996   
       207   0.009619607    0.99037268     7.6685539e-06  0.99999995   
       208   0.010235852    0.98975544     8.6576221e-06  0.99999995   
       209   0.010884861    0.98910532     9.7614533e-06  0.99999994   
       210   0.011558364    0.98843059     1.0976413e-05  0.99999993   
       211   0.012254176    0.98773344     1.2307199e-05  0.99999992   
       212   0.012976292    0.98700985     1.3771455e-05  0.99999991   
       213   0.0137306      0.98625391     1.5391067e-05  0.9999999    
       214   0.014525164    0.98545753     1.7196364e-05  0.99999989   
       215   0.015357466    0.98462321     1.919649e-05   0.99999988   
       216   0.016218254    0.98376022     2.1381626e-05  0.99999986   
       217   0.01711131     0.98286476     2.3772489e-05  0.99999984   
       218   0.018038912    0.98193452     2.6389356e-05  0.99999982   
       219   0.019001459    0.98096909     2.9251054e-05  0.9999998    
       220   0.019996553    0.97997086     3.2364317e-05  0.99999978   
       221   0.021022601    0.97894141     3.573974e-05   0.99999975   
       222   0.022090709    0.97786959     3.9433076e-05  0.99999974   
       223   0.023198067    0.97675818     4.3456369e-05  0.9999997    
       224   0.024335375    0.9756165      4.7793017e-05  0.99999967   
       225   0.025508264    0.97443889     5.2480047e-05  0.99999964   
       226   0.026713725    0.97322834     5.7527708e-05  0.99999959   
       227   0.027946402    0.97199021     6.2934304e-05  0.99999955   
       228   0.029210491    0.97072027     6.8743041e-05  0.99999951   
       229   0.030513651    0.96941081     7.5011724e-05  0.99999947   
       230   0.031856133    0.96806153     8.1757284e-05  0.99999942   
       231   0.033237057    0.96667331     8.9002945e-05  0.99999937   
       232   0.034662675    0.96523984     9.6810652e-05  0.99999932   
       233   0.036139123    0.96375491     0.00010524151  0.99999928   
       234   0.03765712     0.96222781     0.00011428082  0.99999921   
       235   0.039208801    0.96066642     0.00012391475  0.99999914   
       236   0.040815134    0.95904966     0.00013429237  0.99999909   
       237   0.042476186    0.95737737     0.00014545523  0.99999901   
       238   0.044175178    0.9556664      0.00015735033  0.99999893   
       239   0.045914666    0.95391414     0.00017003525  0.99999885   
       240   0.047694356    0.95212085     0.00018354325  0.99999875   
       241   0.049523127    0.95027757     0.00019797708  0.99999867   
       242   0.051398521    0.94838668     0.00021336033  0.99999856   
       243   0.053318243    0.9464505      0.00022972106  0.99999847   
       244   0.055287789    0.94446341     0.00024715326  0.99999835   
       245   0.057300548    0.94243203     0.00026564938  0.99999823   
       246   0.05935952     0.9403533      0.00028529313  0.99999811   
       247   0.061470584    0.93822119     0.00030621192  0.99999799   
       248   0.063634516    0.93603485     0.00032849038  0.99999785   
       249   0.065841685    0.93380393     0.00035208067  0.99999769   
       250   0.068088905    0.93153166     0.00037697634  0.99999754   
       251   0.070381932    0.92921215     0.0004032905   0.99999737   
       252   0.072717213    0.92684893     0.00043104976  0.99999719   
       253   0.075099137    0.92443754     0.00046035161  0.99999703   
       254   0.07754541     0.92195999     0.00049147631  0.99999687   
       255   0.080051611    0.9194206      0.00052446167  0.99999667   
       256   0.082604501    0.91683276     0.00055920477  0.99999646   
       257   0.085212796    0.91418756     0.00059591     0.99999626   
       258   0.087878002    0.91148331     0.00063472536  0.99999604   
       259   0.090586432    0.90873381     0.00067553944  0.99999578   
       260   0.093337947    0.9059392      0.00071838225  0.99999553   
       261   0.096132345    0.90309958     0.00076332501  0.99999525   
       262   0.098974961    0.90020952     0.00081052212  0.999995     
       263   0.1018714      0.89726317     0.00086014484  0.99999472   
       264   0.10482298     0.89425917     0.00091229036  0.99999444   
       265   0.10782401     0.89120314     0.00096696658  0.99999411   
       266   0.11088498     0.88808434     0.0010245252   0.99999385   
       267   0.11401908     0.88488913     0.0010853219   0.99999353   
       268   0.11722941     0.88161423     0.0011496051   0.99999324   
       269   0.12051573     0.87825961     0.001217546    0.99999289   
       270   0.12385219     0.87485157     0.0012887017   0.99999247   
       271   0.12723705     0.8713919      0.0013631316   0.99999207   
       272   0.13066993     0.86788075     0.0014409443   0.99999163   
       273   0.13415118     0.86431773     0.001522296    0.9999912    
       274   0.13769824     0.86068482     0.0016077253   0.99999079   
       275   0.14131861     0.85697415     0.0016975861   0.99999035   
       276   0.14501878     0.85317897     0.0017921657   0.99998992   
       277   0.14878603     0.84931204     0.0018913092   0.99998938   
       278   0.15259648     0.8453977      0.0019946222   0.99998881   
       279   0.15644379     0.84144234     0.0021020805   0.99998821   
       280   0.16032736     0.83744645     0.0022137893   0.9999876    
       281   0.16425548     0.83340139     0.0023301383   0.99998701   
       282   0.16822757     0.82930752     0.0024512634   0.99998636   
       283   0.17224035     0.8251682      0.0025771688   0.99998572   
       284   0.17629318     0.82098387     0.0027079814   0.99998503   
       285   0.18040094     0.81673911     0.0028443658   0.99998442   
       286   0.18457234     0.81242444     0.0029869367   0.99998372   
       287   0.18880886     0.8080382      0.0031360096   0.99998307   
       288   0.19312114     0.80356909     0.0032921297   0.99998236   
       289   0.19749253     0.79903402     0.003454999    0.99998155   
       290   0.20191669     0.79443955     0.0036245159   0.99998076   
       291   0.20640526     0.78977337     0.0038013369   0.99997996   
       292   0.2109436      0.7850502      0.0039852267   0.99997902   
       293   0.21551299     0.78028948     0.0041755942   0.99997806   
       294   0.22013411     0.77546966     0.0043734357   0.9999772    
       295   0.22480602     0.77059119     0.0045789709   0.99997618   
       296   0.22952454     0.76565826     0.0047924353   0.99997524   
       297   0.2342887      0.7606714      0.0050140554   0.99997415   
       298   0.23908051     0.75564941     0.0052431119   0.99997303   
       299   0.24392485     0.75056637     0.0054808211   0.99997204   
       300   0.24883175     0.74541112     0.0057280514   0.99997093   
       301   0.25379695     0.74018779     0.0059851149   0.99996985   
       302   0.25881962     0.73489693     0.0062520957   0.99996864   
       303   0.2638868      0.72955205     0.0065285536   0.9999674    
       304   0.2690053      0.72414542     0.0068154672   0.99996618   
       305   0.2741647      0.71868741     0.0071126841   0.99996479   
       306   0.27934561     0.71319851     0.0074192373   0.99996336   
       307   0.28455846     0.7076676      0.0077359231   0.99996199   
       308   0.2898235      0.70207297     0.0080641832   0.99996065   
       309   0.29513594     0.69641909     0.0084041289   0.99995916   
       310   0.3004853      0.69071678     0.0087555753   0.99995766   
       311   0.30587594     0.68496106     0.0091191334   0.99995613   
       312   0.31131655     0.67914245     0.0094956296   0.99995462   
       313   0.31681213     0.67325514     0.0098857781   0.99995305   
       314   0.32234029     0.66732237     0.010288595    0.99995126   
       315   0.32788089     0.66136539     0.010703144    0.99994943   
       316   0.33344714     0.65536977     0.011130784    0.9999477    
       317   0.33903744     0.64933655     0.011571795    0.99994578   
       318   0.34464487     0.643273       0.012026036    0.99994391   
       319   0.35028441     0.63716273     0.012494922    0.99994206   
       320   0.35596271     0.63099797     0.012979482    0.99994016   
       321   0.36166204     0.6247971      0.013478906    0.99993804   
       322   0.36736498     0.61857895     0.013991951    0.99993588   
       323   0.37307018     0.61234469     0.014518821    0.99993369   
       324   0.37877629     0.60609545     0.015059718    0.99993145   
       325   0.38449466     0.59981811     0.015616541    0.99992932   
       326   0.39022353     0.59351384     0.016189607    0.99992698   
       327   0.39596877     0.58717633     0.016779707    0.99992481   
       328   0.40173539     0.58079903     0.017388011    0.99992243   
       329   0.40750273     0.57440457     0.018012622    0.99991993   
       330   0.41326255     0.56800187     0.018652959    0.99991738   
       331   0.41901342     0.56159214     0.019309229    0.99991479   
       332   0.42475393     0.5551766      0.019981636    0.99991217   
       333   0.43048266     0.54875645     0.020670383    0.9999095    
       334   0.4361982      0.54233291     0.021375673    0.99990679   
       335   0.44189914     0.53590719     0.022097706    0.99990404   
       336   0.44758406     0.52948051     0.022836681    0.99990125   
       337   0.45325155     0.52305407     0.023592795    0.99989842   
       338   0.45890021     0.51662909     0.024366243    0.99989554   
       339   0.46454455     0.5101895      0.025158769    0.99989281   
       340   0.47018725     0.50373132     0.025971329    0.9998899    
       341   0.47583086     0.49725059     0.026805689    0.99988714   
       342   0.48146845     0.49075401     0.027661573    0.99988403   
       343   0.4870868      0.4842571      0.028537071    0.99988097   
       344   0.49269625     0.47774649     0.029435206    0.99987795   
       345   0.4982876      0.47123156     0.030355508    0.99987466   
       346   0.50386263     0.46471138     0.031297545    0.99987155   
       347   0.50942746     0.4581776      0.032263217    0.99986828   
       348   0.51496568     0.45164836     0.033250771    0.99986481   
       349   0.52048056     0.44511974     0.034261212    0.99986151   
       350   0.52598117     0.43857915     0.035297808    0.99985812   
       351   0.53145284     0.43204302     0.036358593    0.99985446   
       352   0.53688316     0.42552671     0.037440871    0.99985075   
       353   0.54227965     0.41902149     0.038545986    0.99984712   
       354   0.54764677     0.41252131     0.039675345    0.99984342   
       355   0.55298435     0.40602536     0.040830019    0.99983973   
       356   0.5583047      0.39951684     0.042014648    0.99983619   
       357   0.56359461     0.39300976     0.043227768    0.99983213   
       358   0.56883268     0.38653118     0.044464176    0.99982803   
       359   0.57402192     0.38007684     0.045725213    0.99982397   
       360   0.57916349     0.3736445      0.047011841    0.99981983   
       361   0.58425138     0.36724108     0.048323106    0.99981557   
       362   0.5892916      0.36085944     0.049660418    0.99981145   
       363   0.59428199     0.35450106     0.05102403     0.99980709   
       364   0.59921662     0.34817226     0.052413902    0.99980279   
       365   0.60409359     0.34187446     0.05383026     0.99979831   
       366   0.60890624     0.33561602     0.055271537    0.9997938    
       367   0.61365318     0.32939819     0.056737864    0.99978924   
       368   0.61833305     0.32322222     0.05822937     0.99978463   
       369   0.6229473      0.31708578     0.059746969    0.99978005   
       370   0.62750121     0.31098176     0.061292552    0.99977552   
       371   0.63199008     0.30491515     0.062865534    0.99977076   
       372   0.63640603     0.29889561     0.064464324    0.99976597   
       373   0.64074777     0.29292434     0.066089023    0.99976113   
       374   0.64501403     0.28700251     0.067739728    0.99975626   
       375   0.64920355     0.28113126     0.069416529    0.99975135   
       376   0.65331513     0.27531175     0.071119511    0.9997464    
       377   0.65734756     0.2695451      0.072848753    0.99974141   
       378   0.66129965     0.26383241     0.074604327    0.99973638   
       379   0.66517025     0.25817477     0.0763863      0.99973132   
       380   0.66895961     0.25257127     0.078195393    0.99972627   
       381   0.67267855     0.24700606     0.080036914    0.99972153   
       382   0.67632297     0.24148285     0.081910474    0.9997163    
       383   0.67988027     0.23601978     0.083810981    0.99971103   
       384   0.68335438     0.23061023     0.085741331    0.99970594   
       385   0.68674338     0.22525553     0.087701667    0.99970057   
       386   0.69004159     0.21996439     0.089689199    0.99969518   
       387   0.69324802     0.21473779     0.091703945    0.99968975   
       388   0.6963617      0.20957667     0.093745915    0.99968429   
       389   0.69938904     0.20447247     0.095817494    0.999679     
       390   0.70232825     0.19942643     0.097918775    0.99967346   
       391   0.70517146     0.19444901     0.10004741     0.99966788   
       392   0.7079178      0.1895411      0.10220338     0.99966228   
       393   0.71057058     0.18469612     0.10439018     0.99965689   
       394   0.71313087     0.17990981     0.10661067     0.99965135   
       395   0.71559617     0.17518621     0.10886336     0.99964573   
       396   0.71796245     0.17053195     0.11114554     0.99963994   
       397   0.72022675     0.16595177     0.11345562     0.99963414   
       398   0.72239224     0.16143775     0.11579857     0.99962855   
       399   0.7244592      0.15698742     0.11817615     0.99962277   
       400   0.72642283     0.1526106      0.12058338     0.99961681   
       401   0.72828027     0.14831236     0.12301819     0.99961083   
       402   0.73003093     0.14409338     0.12548051     0.99960482   
       403   0.73167429     0.13995429     0.12797022     0.99959879   
       404   0.73320981     0.13589573     0.13048721     0.99959275   
       405   0.73463846     0.13191469     0.13303366     0.99958681   
       406   0.73595922     0.12801197     0.13560951     0.9995807    
       407   0.73717045     0.12419177     0.13821236     0.99957458   
       408   0.73827279     0.12045021     0.14084565     0.99956865   
       409   0.73926911     0.11678096     0.14351262     0.99956269   
       410   0.74015735     0.1131894      0.14620971     0.99955646   
       411   0.74093343     0.10968331     0.14893348     0.99955022   
       412   0.74159709     0.10626312     0.15168375     0.99954397   
       413   0.74214813     0.10292923     0.15446034     0.9995377    
       414   0.74258637     0.099681999    0.15726306     0.99953142   
       415   0.74291167     0.096521773    0.16009169     0.99952514   
       416   0.74312393     0.093448864    0.16294604     0.99951884   
       417   0.74322309     0.090463559    0.16582589     0.99951254   
       418   0.74320911     0.087566116    0.168731       0.99950623   
       419   0.743082       0.084756765    0.17166115     0.99949992   
       420   0.7428405      0.082030783    0.17462256     0.99949385   
       421   0.74248354     0.079388787    0.17761514     0.99948747   
       422   0.74201287     0.076836       0.18063222     0.99948109   
       423   0.74143053     0.074377019    0.18366692     0.99947446   
       424   0.74073787     0.072011491    0.18671878     0.99946814   
       425   0.73993285     0.069734853    0.1897941      0.99946181   
       426   0.73901574     0.06754714     0.1928926      0.99945549   
       427   0.73798683     0.065448359    0.19601398     0.99944917   
       428   0.73684905     0.063439412    0.19915424     0.9994427    
       429   0.73560498     0.061522161    0.20230912     0.99943626   
       430   0.73425291     0.05969522     0.20548188     0.99943001   
       431   0.73279151     0.057956195    0.20867607     0.99942377   
       432   0.73122123     0.056304959    0.21189135     0.99941754   
       433   0.72954257     0.05474136     0.21512738     0.99941131   
       434   0.72775606     0.053265216    0.21838383     0.9994051    
       435   0.7258637      0.051877458    0.2216576      0.99939876   
       436   0.72386671     0.050577587    0.22494829     0.99939259   
       437   0.72176405     0.04936412     0.22825826     0.99938643   
       438   0.7195607      0.048237514    0.23158183     0.99938004   
       439   0.71726033     0.04719777     0.23491572     0.99937381   
       440   0.71485959     0.046243404    0.23826477     0.99936776   
       441   0.71235709     0.045373221    0.24163141     0.99936172   
       442   0.70975362     0.044586841    0.24501524     0.9993557    
       443   0.70704997     0.043883861    0.24841586     0.99934969   
       444   0.70424697     0.043263852    0.25183288     0.99934371   
       445   0.7013455      0.042726363    0.25526588     0.99933774   
       446   0.69834643     0.042270918    0.25871444     0.99933179   
       447   0.69525264     0.041897617    0.26217549     0.99932575   
       448   0.69206559     0.041605714    0.26564856     0.99931987   
       449   0.68878417     0.041393988    0.26913585     0.99931401   
       450   0.68541519     0.041261007    0.27263177     0.99930797   
       451   0.68196474     0.041205678    0.27613158     0.999302     
       452   0.67843501     0.041226599    0.27963446     0.99929606   
       453   0.6748235      0.041322777    0.28314413     0.9992904    
       454   0.67112454     0.041494628    0.2866656      0.99928477   
       455   0.66733925     0.041741495    0.29019842     0.99927916   
       456   0.66346941     0.042062582    0.29374157     0.99927356   
       457   0.65951628     0.042457154    0.29729459     0.99926802   
       458   0.65548821     0.042924116    0.30084995     0.99926227   
       459   0.65138742     0.043462325    0.30440709     0.99925683   
       460   0.64720831     0.044071132    0.30797194     0.99925138   
       461   0.64295231     0.044749691    0.31154401     0.99924601   
       462   0.63861919     0.045497444    0.31512404     0.99924067   
       463   0.63421524     0.046312279    0.31870769     0.99923521   
       464   0.62974242     0.047193093    0.32229445     0.99922996   
       465   0.62519678     0.048140275    0.3258877      0.99922475   
       466   0.62057965     0.049152975    0.32948695     0.99921957   
       467   0.61589239     0.050230329    0.33309171     0.99921443   
       468   0.6111452      0.0513683      0.33669561     0.99920912   
       469   0.60635113     0.052562341    0.34029037     0.99920383   
       470   0.60150337     0.05381418     0.34388133     0.99919888   
       471   0.59660598     0.055122206    0.3474654      0.99919359   
       472   0.59166389     0.056484175    0.35104066     0.99918872   
       473   0.58666843     0.057901739    0.35461369     0.99918386   
       474   0.58163281     0.059370963    0.3581751      0.99917887   
       475   0.57655505     0.060891486    0.3617277      0.99917424   
       476   0.57142832     0.062463541    0.36527767     0.99916953   
       477   0.56625449     0.064085993    0.36882452     0.999165     
       478   0.56102907     0.065760061    0.37237137     0.9991605    
       479   0.55575352     0.067484787    0.37591774     0.99915604   
       480   0.55042928     0.0692592      0.37946315     0.99915162   
       481   0.54505783     0.071082316    0.3830071      0.99914725   
       482   0.53964745     0.072950256    0.38654508     0.99914279   
       483   0.5342096      0.074857618    0.39007113     0.99913835   
       484   0.52873937     0.076805984    0.39358879     0.99913414   
       485   0.5232284      0.078798495    0.39710308     0.99912997   
       486   0.5176782      0.080834143    0.4006135      0.99912584   
       487   0.51210472     0.082907493    0.40410936     0.99912157   
       488   0.50651021     0.085017234    0.40759012     0.99911757   
       489   0.50088754     0.087163813    0.41106216     0.99911351   
       490   0.49523858     0.089346042    0.41452499     0.99910961   
       491   0.48955842     0.091565735    0.4179816      0.99910576   
       492   0.48385221     0.093820256    0.42142943     0.9991019    
       493   0.47812167     0.096108488    0.42486798     0.99909813   
       494   0.47236455     0.098430977    0.42829889     0.99909442   
       495   0.46660386     0.10077869     0.43170788     0.99909044   
       496   0.46084564     0.10314865     0.43509254     0.99908682   
       497   0.45508441     0.1055425      0.43845622     0.99908313   
       498   0.44931877     0.10796048     0.44180044     0.99907969   
       499   0.44357021     0.11039209     0.44511358     0.99907587   
       500   0.43784161     0.11283575     0.44839524     0.99907261   
       501   0.4320979      0.11530498     0.4516665      0.99906938   
       502   0.42634757     0.11779599     0.45492256     0.99906611   
       503   0.42059232     0.12030766     0.458163       0.99906298   
       504   0.41483309     0.1228384      0.46138833     0.99905981   
       505   0.40907156     0.12538709     0.46459812     0.99905678   
       506   0.40330216     0.12795616     0.46779545     0.99905378   
       507   0.39752632     0.13054461     0.4709799      0.99905083   
       508   0.39175386     0.1331471      0.47414686     0.99904782   
       509   0.3859865      0.13576254     0.47729593     0.99904496   
       510   0.38021695     0.13839427     0.48043093     0.99904215   
       511   0.37445179     0.14103877     0.48354876     0.99903932   
       512   0.36869256     0.14369499     0.48664904     0.99903659   
       513   0.36295708     0.14635297     0.48972364     0.99903369   
       514   0.35726797     0.14900131     0.49276159     0.99903087   
       515   0.35161932     0.15164471     0.49576419     0.99902822   
       516   0.34600767     0.1542837      0.49873423     0.9990256    
       517   0.34044098     0.15691357     0.50166847     0.99902302   
       518   0.33491342     0.15953708     0.50457012     0.99902062   
       519   0.32941986     0.1621552      0.50744317     0.99901823   
       520   0.32395994     0.16476788     0.51028813     0.99901595   
       521   0.31853382     0.16737387     0.51310597     0.99901366   
       522   0.31313516     0.16997634     0.51590006     0.99901155   
       523   0.30776324     0.17257672     0.51866942     0.99900939   
       524   0.30241944     0.17517414     0.52141379     0.99900737   
       525   0.29709161     0.1777734      0.52414038     0.99900539   
       526   0.29179435     0.1803673      0.52684169     0.99900334   
       527   0.28652899     0.18295497     0.52951749     0.99900144   
       528   0.28128277     0.18554209     0.53217472     0.99899958   
       529   0.27606507     0.18812325     0.53480936     0.99899769   
       530   0.27091026     0.19068054     0.53740486     0.99899566   
       531   0.26581131     0.19321776     0.53996489     0.99899396   
       532   0.26075657     0.19574026     0.5424953      0.99899214   
       533   0.25575342     0.19824405     0.54499301     0.99899047   
       534   0.2507913      0.20073378     0.54746374     0.99898882   
       535   0.24587729     0.2032067      0.54990323     0.99898721   
       536   0.2410016      0.20566806     0.55231606     0.99898572   
       537   0.23616527     0.20811543     0.55470348     0.99898418   
       538   0.23142601     0.21051959     0.55703683     0.99898243   
       539   0.22677208     0.21288709     0.55932194     0.99898111   
       540   0.22214736     0.21524559     0.56158685     0.9989798    
       541   0.21756432     0.21758859     0.56382556     0.99897847   
       542   0.21304229     0.21990575     0.56602909     0.99897713   
       543   0.20858342     0.22219497     0.56819748     0.99897587   
       544   0.20419669     0.22445126     0.57032662     0.99897457   
       545   0.19987514     0.22667838     0.57241992     0.99897344   
       546   0.19559015     0.22889099     0.57449123     0.99897237   
       547   0.19133629     0.23109205     0.57654299     0.99897132   
       548   0.1871273      0.23327475     0.57856818     0.99897024   
       549   0.18297969     0.23543073     0.58055876     0.99896917   
       550   0.17888068     0.23756594     0.5825216      0.99896822   
       551   0.17483192     0.23967912     0.58445617     0.99896721   
       552   0.17083399     0.24176988     0.58636245     0.99896632   
       553   0.16686974     0.24384674     0.58824897     0.99896544   
       554   0.16293976     0.24590925     0.59011557     0.99896459   
       555   0.15906061     0.24794908     0.591954       0.99896368   
       556   0.1552328      0.24996585     0.59376423     0.99896288   
       557   0.15144598     0.25196401     0.59555208     0.99896207   
       558   0.14771453     0.25393525     0.59731147     0.99896125   
       559   0.14404832     0.25587484     0.5990373      0.99896046   
       560   0.14043872     0.25778791     0.60073311     0.99895974   
       561   0.13687692     0.25967836     0.60240375     0.99895903   
       562   0.13336699     0.26154355     0.6040478      0.99895834   
       563   0.12992141     0.26337619     0.60566004     0.99895763   
       564   0.12653922     0.26517654     0.60724123     0.998957     
       565   0.12321678     0.2669465      0.60879308     0.99895636   
       566   0.11994821     0.26868947     0.61031811     0.99895579   
       567   0.11672308     0.27041138     0.61182077     0.99895523   
       568   0.11353949     0.27211308     0.61330213     0.9989547    
       569   0.11040508     0.27379104     0.61475803     0.99895415   
       570   0.10732007     0.27544505     0.61618853     0.99895365   
       571   0.10428163     0.27707588     0.61759564     0.99895315   
       572   0.10129587     0.27867991     0.61897689     0.99895267   
       573   0.098353496    0.28026216     0.62033657     0.99895222   
       574   0.095465022    0.28181648     0.62167024     0.99895174   
       575   0.092630519    0.28334281     0.62297801     0.99895133   
       576   0.089857282    0.28483826     0.62425532     0.99895087   
       577   0.087158836    0.28629516     0.62549647     0.99895046   
       578   0.084518728    0.28772166     0.6267097      0.99895008   
       579   0.081922952    0.28912557     0.62790122     0.99894974   
       580   0.079373437    0.29050538     0.62907057     0.99894939   
       581   0.076874829    0.29185839     0.63021584     0.99894906   
       582   0.074432975    0.29318112     0.63133462     0.99894872   
       583   0.072045689    0.29447498     0.63242776     0.99894843   
       584   0.069705529    0.29574455     0.63349805     0.99894813   
       585   0.067423752    0.29698348     0.63454061     0.99894783   
       586   0.065190852    0.29819681     0.63555993     0.99894759   
       587   0.062998559    0.29938942     0.63655935     0.99894733   
       588   0.060848581    0.30056031     0.63753821     0.9989471    
       589   0.058745505    0.30170628     0.63849507     0.99894686   
       590   0.056693055    0.30282507     0.63942851     0.99894663   
       591   0.054683956    0.30392064     0.64034183     0.99894643   
       592   0.052720891    0.30499205     0.64123327     0.99894622   
       593   0.050802829    0.30604011     0.64210309     0.99894603   
       594   0.048921111    0.30706914     0.6429556      0.99894585   
       595   0.047078064    0.30807746     0.64379015     0.99894567   
       596   0.04527909     0.30906236     0.64460405     0.9989455    
       597   0.043524544    0.31002386     0.64539694     0.99894534   
       598   0.041822176    0.31095768     0.64616532     0.99894517   
       599   0.040173628    0.31186257     0.64690883     0.99894503   
       600   0.038564705    0.31274592     0.64763427     0.9989449    
       601   0.036995311    0.31360783     0.64834162     0.99894476   
       602   0.035481343    0.31443993     0.64902335     0.99894462   
       603   0.03401985     0.31524381     0.64968085     0.99894451   
       604   0.032605222    0.31602225     0.65031692     0.99894439   
       605   0.031241548    0.31677335     0.65092939     0.99894429   
       606   0.029921311    0.31750134     0.65152154     0.99894419   
       607   0.028643317    0.31820626     0.65209452     0.9989441    
       608   0.027402346    0.31889067     0.65265101     0.99894402   
       609   0.026193952    0.31955749     0.6531925      0.99894394   
       610   0.025021711    0.3202046      0.65371756     0.99894387   
       611   0.023881979    0.32083384     0.65422798     0.9989438    
       612   0.022777918    0.32144336     0.65472245     0.99894373   
       613   0.021708761    0.32203355     0.65520136     0.99894367   
       614   0.020669803    0.32260732     0.65566648     0.99894361   
       615   0.019660241    0.32316514     0.65611818     0.99894356   
       616   0.018680635    0.32370678     0.65655609     0.99894351   
       617   0.0177348      0.32423004     0.65697862     0.99894346   
       618   0.016821466    0.32473539     0.65738655     0.99894341   
       619   0.015935557    0.32522573     0.65778208     0.99894337   
       620   0.015074043    0.3257027      0.65816659     0.99894333   
       621   0.014236893    0.3261663      0.6585401      0.99894329   
       622   0.013428919    0.3266137      0.65890064     0.99894326   
       623   0.012655051    0.32704209     0.65924608     0.99894322   
       624   0.011915055    0.32745201     0.65957612     0.99894319   
       625   0.011211261    0.32784221     0.65988968     0.99894315   
       626   0.010537535    0.32821582     0.66018977     0.99894313   
       627   0.0098876731   0.32857637     0.66047906     0.99894311   
       628   0.0092634315   0.32892282     0.66075683     0.99894308   
       629   0.0086640047   0.32925542     0.66102364     0.99894306   
       630   0.0080903802   0.3295738      0.66127887     0.99894304   
       631   0.0075402519   0.32987932     0.66152346     0.99894303   
       632   0.0070115467   0.33017291     0.66175855     0.99894301   
       633   0.0065128208   0.33044973     0.66198044     0.99894299   
       634   0.0060430572   0.33071036     0.66218956     0.99894298   
       635   0.0055925478   0.33096042     0.66239        0.99894297   
       636   0.0051638743   0.3311985      0.66258058     0.99894296   
       637   0.0047587065   0.3314236      0.66276064     0.99894294   
       638   0.0043757742   0.33163631     0.66293085     0.99894294   
       639   0.0040175073   0.33183518     0.66309024     0.99894293   
       640   0.003681407    0.33202176     0.66323975     0.99894292   
       641   0.0033628234   0.33219874     0.66338135     0.99894291   
       642   0.0030615753   0.3323661      0.66351523     0.99894291   
       643   0.002778428    0.33252338     0.66364109     0.9989429    
       644   0.0025131887   0.33267078     0.66375893     0.9989429    
       645   0.0022612414   0.33281087     0.66387078     0.99894289   
       646   0.002021959    0.33294401     0.66397692     0.99894289   
       647   0.0017966584   0.33306949     0.66407674     0.99894289   
       648   0.0015840458   0.33318795     0.66417088     0.99894288   
       649   0.001383267    0.33329984     0.66425978     0.99894288   
       650   0.0011949723   0.33340476     0.66434315     0.99894288   
       651   0.0010218186   0.33350125     0.6644198      0.99894287   
       652   0.00086287288  0.33358981     0.66449019     0.99894287   
       653   0.00071604461  0.33367161     0.66455522     0.99894287   
       654   0.00058013264  0.33374731     0.66461543     0.99894287   
       655   0.00045368783  0.33381771     0.66467147     0.99894287   
       656   0.00033687418  0.33388273     0.66472326     0.99894287   
       657   0.00023062013  0.33394184     0.6647704      0.99894287   
       658   0.00013457633  0.33399528     0.66481301     0.99894287   
       659   4.6710756e-05  0.3340442      0.66485196     0.99894287   
       660  -3.3112323e-05  0.33408863     0.66488734     0.99894286   
       661  -0.00010569081  0.33412901     0.66491954     0.99894286   
       662  -0.00017245078  0.33416614     0.66494917     0.99894286   
       663  -0.00023250761  0.33419955     0.66497582     0.99894286   
       664  -0.00028451742  0.33422849     0.66499889     0.99894286   
       665  -0.00032990018  0.33425376     0.66501901     0.99894286   
       666  -0.00037002748  0.3342761      0.66503679     0.99894286   
       667  -0.00040457713  0.33429535     0.66505209     0.99894286   
       668  -0.00043390382  0.33431168     0.66506509     0.99894286   
       669  -0.00045915321  0.33432574     0.66507627     0.99894286   
       670  -0.00048064414  0.3343377      0.66508581     0.99894286   
       671  -0.00049893004  0.33434786     0.66509393     0.99894286   
       672  -0.00051430759  0.33435639     0.66510078     0.99894286   
       673  -0.00052705994  0.33436347     0.66510645     0.99894286   
       674  -0.00053765638  0.33436935     0.66511117     0.99894286   
       675  -0.00054615014  0.33437406     0.66511495     0.99894286   
       676  -0.00055317277  0.33437796     0.66511807     0.99894286   
       677  -0.00055911004  0.33438126     0.66512072     0.99894286   
       678  -0.00056383167  0.33438388     0.66512282     0.99894286   
       679  -0.00056741296  0.33438586     0.66512442     0.99894286   
       680  -0.00057019894  0.3343874      0.66512566     0.99894286   
       681  -0.00057232196  0.33438858     0.66512661     0.99894286   
       682  -0.00057390957  0.33438946     0.66512732     0.99894286   
       683  -0.00057498151  0.33439005     0.6651278      0.99894286   
       684  -0.00057567391  0.33439043     0.66512811     0.99894286   
       685  -0.00057607789  0.33439065     0.66512829     0.99894286   
       686  -0.00057630509  0.33439078     0.66512839     0.99894286   
       687  -0.00057642245  0.33439085     0.66512844     0.99894286   
       688  -0.00057645861  0.33439087     0.66512846     0.99894286   
       689  -0.00057645861  0.33439087     0.66512846     0.99894286   
       690  -0.00057645861  0.33439087     0.66512846     0.99894286   
       691  -0.00057645861  0.33439087     0.66512846     0.99894286   
       692  -0.00057645861  0.33439087     0.66512846     0.99894286   
       693  -0.00057645861  0.33439087     0.66512846     0.99894286   
       694  -0.00057645861  0.33439087     0.66512846     0.99894286   
       695  -0.00057645861  0.33439087     0.66512846     0.99894286   
       696  -0.00057645861  0.33439087     0.66512846     0.99894286   
       697  -0.00057645861  0.33439087     0.66512846     0.99894286   
       698  -0.00057645861  0.33439087     0.66512846     0.99894286   
       699  -0.00057645861  0.33439087     0.66512846     0.99894286   
       700  -0.00057645861  0.33439087     0.66512846     0.99894286   
       701  -0.00057645861  0.33439087     0.66512846     0.99894286   
       702  -0.00057645861  0.33439087     0.66512846     0.99894286   
       703  -0.00057645861  0.33439087     0.66512846     0.99894286   
       704  -0.00057645861  0.33439087     0.66512846     0.99894286   
       705  -0.00057645861  0.33439087     0.66512846     0.99894286   
       706  -0.00057645861  0.33439087     0.66512846     0.99894286   
       707  -0.00057645861  0.33439087     0.66512846     0.99894286   
       708  -0.00057645861  0.33439087     0.66512846     0.99894286   
       709  -0.00057645861  0.33439087     0.66512846     0.99894286   
       710  -0.00057645861  0.33439087     0.66512846     0.99894286   
       711  -0.00057645861  0.33439087     0.66512846     0.99894286   
       712  -0.00057645861  0.33439087     0.66512846     0.99894286   
       713  -0.00057645861  0.33439087     0.66512846     0.99894286   
       714  -0.00057645861  0.33439087     0.66512846     0.99894286   
       715  -0.00057645861  0.33439087     0.66512846     0.99894286   
       716  -0.00057645861  0.33439087     0.66512846     0.99894286   
       717  -0.00057645861  0.33439087     0.66512846     0.99894286   
       718  -0.00057645861  0.33439087     0.66512846     0.99894286   
       719  -0.00057645861  0.33439087     0.66512846     0.99894286   
       720  -0.00057645861  0.33439087     0.66512846     0.99894286   
       721  -0.00057645861  0.33439087     0.66512846     0.99894286   
       722  -0.00057645861  0.33439087     0.66512846     0.99894286   
       723  -0.00057645861  0.33439087     0.66512846     0.99894286   
       724  -0.00057645861  0.33439087     0.66512846     0.99894286   
       725  -0.00057645861  0.33439087     0.66512846     0.99894286   
       726  -0.00057645861  0.33439087     0.66512846     0.99894286   
       727  -0.00057645861  0.33439087     0.66512846     0.99894286   
       728  -0.00057645861  0.33439087     0.66512846     0.99894286   
       729  -0.00057645861  0.33439087     0.66512846     0.99894286   
       730  -0.00057645861  0.33439087     0.66512846     0.99894286   
       731  -0.00057645861  0.33439087     0.66512846     0.99894286   
       732  -0.00057645861  0.33439087     0.66512846     0.99894286   
       733  -0.00057645861  0.33439087     0.66512846     0.99894286   
       734  -0.00057645861  0.33439087     0.66512846     0.99894286   
       735  -0.00057645861  0.33439087     0.66512846     0.99894286   
       736  -0.00057645861  0.33439087     0.66512846     0.99894286   
       737  -0.00057645861  0.33439087     0.66512846     0.99894286   
       738  -0.00057645861  0.33439087     0.66512846     0.99894286   
       739  -0.00057645861  0.33439087     0.66512846     0.99894286   
       740  -0.00057645861  0.33439087     0.66512846     0.99894286   
       741  -0.00057645861  0.33439087     0.66512846     0.99894286   
       742  -0.00057645861  0.33439087     0.66512846     0.99894286   
       743  -0.00057645861  0.33439087     0.66512846     0.99894286   
       744  -0.00057645861  0.33439087     0.66512846     0.99894286   
       745  -0.00057645861  0.33439087     0.66512846     0.99894286   
       746  -0.00057645861  0.33439087     0.66512846     0.99894286   
       747  -0.00057645861  0.33439087     0.66512846     0.99894286   
       748  -0.00057645861  0.33439087     0.66512846     0.99894286   
       749  -0.00057645861  0.33439087     0.66512846     0.99894286   
       750  -0.00057645861  0.33439087     0.66512846     0.99894286   
       751  -0.00057645861  0.33439087     0.66512846     0.99894286   
       752  -0.00057645861  0.33439087     0.66512846     0.99894286   
       753  -0.00057645861  0.33439087     0.66512846     0.99894286   
       754  -0.00057645861  0.33439087     0.66512846     0.99894286   
       755  -0.00057645861  0.33439087     0.66512846     0.99894286   
       756  -0.00057645861  0.33439087     0.66512846     0.99894286   
       757  -0.00057645861  0.33439087     0.66512846     0.99894286   
       758  -0.00057645861  0.33439087     0.66512846     0.99894286   
       759  -0.00057645861  0.33439087     0.66512846     0.99894286   
       760  -0.00057645861  0.33439087     0.66512846     0.99894286   
       761  -0.00057645861  0.33439087     0.66512846     0.99894286   
       762  -0.00057645861  0.33439087     0.66512846     0.99894286   
       763  -0.00057645861  0.33439087     0.66512846     0.99894286   
       764  -0.00057645861  0.33439087     0.66512846     0.99894286   
       765  -0.00057645861  0.33439087     0.66512846     0.99894286   
       766  -0.00057645861  0.33439087     0.66512846     0.99894286   
       767  -0.00057645861  0.33439087     0.66512846     0.99894286   
       768  -0.00057645861  0.33439087     0.66512846     0.99894286   
       769  -0.00057645861  0.33439087     0.66512846     0.99894286   
       770  -0.00057645861  0.33439087     0.66512846     0.99894286   
       771  -0.00057645861  0.33439087     0.66512846     0.99894286   
       772  -0.00057645861  0.33439087     0.66512846     0.99894286   
       773  -0.00057645861  0.33439087     0.66512846     0.99894286   
       774  -0.00057645861  0.33439087     0.66512846     0.99894286   
       775  -0.00057645861  0.33439087     0.66512846     0.99894286   
       776  -0.00057645861  0.33439087     0.66512846     0.99894286   
       777  -0.00057645861  0.33439087     0.66512846     0.99894286   
       778  -0.00057645861  0.33439087     0.66512846     0.99894286   
       779  -0.00057645861  0.33439087     0.66512846     0.99894286   
       780  -0.00057645861  0.33439087     0.66512846     0.99894286   
       781  -0.00057645861  0.33439087     0.66512846     0.99894286   
       782  -0.00057645861  0.33439087     0.66512846     0.99894286   
       783  -0.00057645861  0.33439087     0.66512846     0.99894286   
       784  -0.00057645861  0.33439087     0.66512846     0.99894286   
       785  -0.00057645861  0.33439087     0.66512846     0.99894286   
       786  -0.00057645861  0.33439087     0.66512846     0.99894286   
       787  -0.00057645861  0.33439087     0.66512846     0.99894286   
       788  -0.00057645861  0.33439087     0.66512846     0.99894286   
       789  -0.00057645861  0.33439087     0.66512846     0.99894286   
       790  -0.00057645861  0.33439087     0.66512846     0.99894286   
       791  -0.00057645861  0.33439087     0.66512846     0.99894286   
       792  -0.00057645861  0.33439087     0.66512846     0.99894286   
       793  -0.00057645861  0.33439087     0.66512846     0.99894286   
       794  -0.00057645861  0.33439087     0.66512846     0.99894286   
       795  -0.00057645861  0.33439087     0.66512846     0.99894286   
       796  -0.00057645861  0.33439087     0.66512846     0.99894286   
       797  -0.00057645861  0.33439087     0.66512846     0.99894286   
       798  -0.00057645861  0.33439087     0.66512846     0.99894286   
       799  -0.00057645861  0.33439087     0.66512846     0.99894286   
       800  -0.00057645861  0.33439087     0.66512846     0.99894286   
       801  -0.00057645861  0.33439087     0.66512846     0.99894286   
       802  -0.00057645861  0.33439087     0.66512846     0.99894286   
       803  -0.00057645861  0.33439087     0.66512846     0.99894286   
       804  -0.00057645861  0.33439087     0.66512846     0.99894286   
       805  -0.00057645861  0.33439087     0.66512846     0.99894286   
       806  -0.00057645861  0.33439087     0.66512846     0.99894286   
       807  -0.00057645861  0.33439087     0.66512846     0.99894286   
       808  -0.00057645861  0.33439087     0.66512846     0.99894286   
       809  -0.00057645861  0.33439087     0.66512846     0.99894286   
       810  -0.00057645861  0.33439087     0.66512846     0.99894286   
       811  -0.00057645861  0.33439087     0.66512846     0.99894286   
       812  -0.00057645861  0.33439087     0.66512846     0.99894286   
       813  -0.00057645861  0.33439087     0.66512846     0.99894286   
       814  -0.00057645861  0.33439087     0.66512846     0.99894286   
       815  -0.00057645861  0.33439087     0.66512846     0.99894286   
       816  -0.00057645861  0.33439087     0.66512846     0.99894286   
       817  -0.00057645861  0.33439087     0.66512846     0.99894286   
       818  -0.00057645861  0.33439087     0.66512846     0.99894286   
       819  -0.00057645861  0.33439087     0.66512846     0.99894286   
       820  -0.00057645861  0.33439087     0.66512846     0.99894286   
       821  -0.00057645861  0.33439087     0.66512846     0.99894286   
       822  -0.00057645861  0.33439087     0.66512846     0.99894286   
       823  -0.00057645861  0.33439087     0.66512846     0.99894286   
       824  -0.00057645861  0.33439087     0.66512846     0.99894286   
       825  -0.00057645861  0.33439087     0.66512846     0.99894286   
       826  -0.00057645861  0.33439087     0.66512846     0.99894286   
       827  -0.00057645861  0.33439087     0.66512846     0.99894286   
       828  -0.00057645861  0.33439087     0.66512846     0.99894286   
       829  -0.00057645861  0.33439087     0.66512846     0.99894286   
       830  -0.00057645861  0.33439087     0.66512846     0.99894286   
       831  -0.00057645861  0.33439087     0.66512846     0.99894286   
       832  -0.00057645861  0.33439087     0.66512846     0.99894286   
       833  -0.00057645861  0.33439087     0.66512846     0.99894286   
       834  -0.00057645861  0.33439087     0.66512846     0.99894286   
       835  -0.00057645861  0.33439087     0.66512846     0.99894286   
       836  -0.00057645861  0.33439087     0.66512846     0.99894286   
       837  -0.00057645861  0.33439087     0.66512846     0.99894286   
       838  -0.00057645861  0.33439087     0.66512846     0.99894286   
       839  -0.00057645861  0.33439087     0.66512846     0.99894286   
       840  -0.00057645861  0.33439087     0.66512846     0.99894286   
       841  -0.00057645861  0.33439087     0.66512846     0.99894286   
       842  -0.00057645861  0.33439087     0.66512846     0.99894286   
       843  -0.00057645861  0.33439087     0.66512846     0.99894286   
       844  -0.00057645861  0.33439087     0.66512846     0.99894286   
       845  -0.00057645861  0.33439087     0.66512846     0.99894286   
       846  -0.00057645861  0.33439087     0.66512846     0.99894286   
       847  -0.00057645861  0.33439087     0.66512846     0.99894286   
       848  -0.00057645861  0.33439087     0.66512846     0.99894286   
       849  -0.00057645861  0.33439087     0.66512846     0.99894286   
       850  -0.00057645861  0.33439087     0.66512846     0.99894286   
       851  -0.00057645861  0.33439087     0.66512846     0.99894286   
       852  -0.00057645861  0.33439087     0.66512846     0.99894286   
       853  -0.00057645861  0.33439087     0.66512846     0.99894286   
       854  -0.00057645861  0.33439087     0.66512846     0.99894286   
       855  -0.00057645861  0.33439087     0.66512846     0.99894286   
       856  -0.00057645861  0.33439087     0.66512846     0.99894286   
       857  -0.00057645861  0.33439087     0.66512846     0.99894286   
       858  -0.00057645861  0.33439087     0.66512846     0.99894286   
       859  -0.00057645861  0.33439087     0.66512846     0.99894286   
       860  -0.00057645861  0.33439087     0.66512846     0.99894286   
       861  -0.00057645861  0.33439087     0.66512846     0.99894286   
       862  -0.00057645861  0.33439087     0.66512846     0.99894286   
       863  -0.00057645861  0.33439087     0.66512846     0.99894286   
       864  -0.00057645861  0.33439087     0.66512846     0.99894286   
       865  -0.00057645861  0.33439087     0.66512846     0.99894286   
       866  -0.00057645861  0.33439087     0.66512846     0.99894286   
       867  -0.00057645861  0.33439087     0.66512846     0.99894286   
       868  -0.00057645861  0.33439087     0.66512846     0.99894286   
       869  -0.00057645861  0.33439087     0.66512846     0.99894286   
       870  -0.00057645861  0.33439087     0.66512846     0.99894286   
       871  -0.00057645861  0.33439087     0.66512846     0.99894286   
       872  -0.00057645861  0.33439087     0.66512846     0.99894286   
       873  -0.00057645861  0.33439087     0.66512846     0.99894286   
       874  -0.00057645861  0.33439087     0.66512846     0.99894286   
       875  -0.00057645861  0.33439087     0.66512846     0.99894286   
       876  -0.00057645861  0.33439087     0.66512846     0.99894286   
       877  -0.00057645861  0.33439087     0.66512846     0.99894286   
       878  -0.00057645861  0.33439087     0.66512846     0.99894286   
       879  -0.00057645861  0.33439087     0.66512846     0.99894286   
       880  -0.00057645861  0.33439087     0.66512846     0.99894286   
       881  -0.00057645861  0.33439087     0.66512846     0.99894286   
       882  -0.00057645861  0.33439087     0.66512846     0.99894286   
       883  -0.00057645861  0.33439087     0.66512846     0.99894286   
       884  -0.00057645861  0.33439087     0.66512846     0.99894286   
       885  -0.00057645861  0.33439087     0.66512846     0.99894286   
       886  -0.00057645861  0.33439087     0.66512846     0.99894286   
       887  -0.00057645861  0.33439087     0.66512846     0.99894286   
       888  -0.00057645861  0.33439087     0.66512846     0.99894286   
       889  -0.00057645861  0.33439087     0.66512846     0.99894286   
       890  -0.00057645861  0.33439087     0.66512846     0.99894286   
       891  -0.00057645861  0.33439087     0.66512846     0.99894286   
       892  -0.00057645861  0.33439087     0.66512846     0.99894286   
       893  -0.00057645861  0.33439087     0.66512846     0.99894286   
       894  -0.00057645861  0.33439087     0.66512846     0.99894286   
       895  -0.00057645861  0.33439087     0.66512846     0.99894286   
       896  -0.00057645861  0.33439087     0.66512846     0.99894286   
       897  -0.00057645861  0.33439087     0.66512846     0.99894286   
       898  -0.00057645861  0.33439087     0.66512846     0.99894286   
       899  -0.00057645861  0.33439087     0.66512846     0.99894286   
       900  -0.00057645861  0.33439087     0.66512846     0.99894286   
       901  -0.00057645861  0.33439087     0.66512846     0.99894286   
       902  -0.00057645861  0.33439087     0.66512846     0.99894286   
       903  -0.00057645861  0.33439087     0.66512846     0.99894286   
       904  -0.00057645861  0.33439087     0.66512846     0.99894286   
       905  -0.00057645861  0.33439087     0.66512846     0.99894286   
       906  -0.00057645861  0.33439087     0.66512846     0.99894286   
       907  -0.00057645861  0.33439087     0.66512846     0.99894286   
       908  -0.00057645861  0.33439087     0.66512846     0.99894286   
       909  -0.00057645861  0.33439087     0.66512846     0.99894286   
       910  -0.00057645861  0.33439087     0.66512846     0.99894286   
       911  -0.00057645861  0.33439087     0.66512846     0.99894286   
       912  -0.00057645861  0.33439087     0.66512846     0.99894286   
       913  -0.00057645861  0.33439087     0.66512846     0.99894286   
       914  -0.00057645861  0.33439087     0.66512846     0.99894286   
       915  -0.00057645861  0.33439087     0.66512846     0.99894286   
       916  -0.00057645861  0.33439087     0.66512846     0.99894286   
       917  -0.00057645861  0.33439087     0.66512846     0.99894286   
       918  -0.00057645861  0.33439087     0.66512846     0.99894286   
       919  -0.00057645861  0.33439087     0.66512846     0.99894286   
       920  -0.00057645861  0.33439087     0.66512846     0.99894286   
       921  -0.00057645861  0.33439087     0.66512846     0.99894286   
       922  -0.00057645861  0.33439087     0.66512846     0.99894286   
       923  -0.00057645861  0.33439087     0.66512846     0.99894286   
       924  -0.00057645861  0.33439087     0.66512846     0.99894286   
       925  -0.00057645861  0.33439087     0.66512846     0.99894286   
       926  -0.00057645861  0.33439087     0.66512846     0.99894286   
       927  -0.00057645861  0.33439087     0.66512846     0.99894286   
       928  -0.00057645861  0.33439087     0.66512846     0.99894286   
       929  -0.00057645861  0.33439087     0.66512846     0.99894286   
       930  -0.00057645861  0.33439087     0.66512846     0.99894286   
       931  -0.00057645861  0.33439087     0.66512846     0.99894286   
       932  -0.00057645861  0.33439087     0.66512846     0.99894286   
       933  -0.00057645861  0.33439087     0.66512846     0.99894286   
       934  -0.00057645861  0.33439087     0.66512846     0.99894286   
       935  -0.00057645861  0.33439087     0.66512846     0.99894286   
       936  -0.00057645861  0.33439087     0.66512846     0.99894286   
       937  -0.00057645861  0.33439087     0.66512846     0.99894286   
       938  -0.00057645861  0.33439087     0.66512846     0.99894286   
       939  -0.00057645861  0.33439087     0.66512846     0.99894286   
       940  -0.00057645861  0.33439087     0.66512846     0.99894286   
       941  -0.00057645861  0.33439087     0.66512846     0.99894286   
       942  -0.00057645861  0.33439087     0.66512846     0.99894286   
       943  -0.00057645861  0.33439087     0.66512846     0.99894286   
       944  -0.00057645861  0.33439087     0.66512846     0.99894286   
       945  -0.00057645861  0.33439087     0.66512846     0.99894286   
       946  -0.00057645861  0.33439087     0.66512846     0.99894286   
       947  -0.00057645861  0.33439087     0.66512846     0.99894286   
       948  -0.00057645861  0.33439087     0.66512846     0.99894286   
       949  -0.00057645861  0.33439087     0.66512846     0.99894286   
       950  -0.00057645861  0.33439087     0.66512846     0.99894286   
       951  -0.00057645861  0.33439087     0.66512846     0.99894286   
       952  -0.00057645861  0.33439087     0.66512846     0.99894286   
       953  -0.00057645861  0.33439087     0.66512846     0.99894286   
       954  -0.00057645861  0.33439087     0.66512846     0.99894286   
       955  -0.00057645861  0.33439087     0.66512846     0.99894286   
       956  -0.00057645861  0.33439087     0.66512846     0.99894286   
       957  -0.00057645861  0.33439087     0.66512846     0.99894286   
       958  -0.00057645861  0.33439087     0.66512846     0.99894286   
       959  -0.00057645861  0.33439087     0.66512846     0.99894286   
       960  -0.00057645861  0.33439087     0.66512846     0.99894286   
       961  -0.00057645861  0.33439087     0.66512846     0.99894286   
       962  -0.00057645861  0.33439087     0.66512846     0.99894286   
       963  -0.00057645861  0.33439087     0.66512846     0.99894286   
       964  -0.00057645861  0.33439087     0.66512846     0.99894286   
       965  -0.00057645861  0.33439087     0.66512846     0.99894286   
       966  -0.00057645861  0.33439087     0.66512846     0.99894286   
       967  -0.00057645861  0.33439087     0.66512846     0.99894286   
       968  -0.00057645861  0.33439087     0.66512846     0.99894286   
       969  -0.00057645861  0.33439087     0.66512846     0.99894286   
       970  -0.00057645861  0.33439087     0.66512846     0.99894286   
       971  -0.00057645861  0.33439087     0.66512846     0.99894286   
       972  -0.00057645861  0.33439087     0.66512846     0.99894286   
       973  -0.00057645861  0.33439087     0.66512846     0.99894286   
       974  -0.00057645861  0.33439087     0.66512846     0.99894286   
       975  -0.00057645861  0.33439087     0.66512846     0.99894286   
       976  -0.00057645861  0.33439087     0.66512846     0.99894286   
       977  -0.00057645861  0.33439087     0.66512846     0.99894286   
       978  -0.00057645861  0.33439087     0.66512846     0.99894286   
       979  -0.00057645861  0.33439087     0.66512846     0.99894286   
       980  -0.00057645861  0.33439087     0.66512846     0.99894286   
       981  -0.00057645861  0.33439087     0.66512846     0.99894286   
       982  -0.00057645861  0.33439087     0.66512846     0.99894286   
       983  -0.00057645861  0.33439087     0.66512846     0.99894286   
       984  -0.00057645861  0.33439087     0.66512846     0.99894286   
       985  -0.00057645861  0.33439087     0.66512846     0.99894286   
       986  -0.00057645861  0.33439087     0.66512846     0.99894286   
       987  -0.00057645861  0.33439087     0.66512846     0.99894286   
       988  -0.00057645861  0.33439087     0.66512846     0.99894286   
       989  -0.00057645861  0.33439087     0.66512846     0.99894286   
       990  -0.00057645861  0.33439087     0.66512846     0.99894286   
       991  -0.00057645861  0.33439087     0.66512846     0.99894286   
       992  -0.00057645861  0.33439087     0.66512846     0.99894286   
       993  -0.00057645861  0.33439087     0.66512846     0.99894286   
       994  -0.00057645861  0.33439087     0.66512846     0.99894286   
       995  -0.00057645861  0.33439087     0.66512846     0.99894286   
       996  -0.00057645861  0.33439087     0.66512846     0.99894286   
       997  -0.00057645861  0.33439087     0.66512846     0.99894286   
       998  -0.00057645861  0.33439087     0.66512846     0.99894286   
       999  -0.00057645861  0.33439087     0.66512846     0.99894286   
      1000  -0.00057645861  0.33439087     0.66512846     0.99894286   
Loop time of 25.9253 on 1 procs for 1000 steps with 2 atoms

99.1% CPU use with 1 MPI tasks x no OpenMP threads

MPI task timing breakdown:
Section |  min time  |  avg time  |  max time  |%varavg| %total
---------------------------------------------------------------
Pair    | 25.882     | 25.882     | 25.882     |   0.0 | 99.83
Neigh   | 0.003085   | 0.003085   | 0.003085   |   0.0 |  0.01
Comm    | 0.001103   | 0.001103   | 0.001103   |   0.0 |  0.00
Output  | 0.033347   | 0.033347   | 0.033347   |   0.0 |  0.13
Modify  | 0.002137   | 0.002137   | 0.002137   |   0.0 |  0.01
Other   |            | 0.003874   |            |       |  0.01

Nlocal:              2 ave           2 max           2 min
Histogram: 1 0 0 0 0 0 0 0 0 0
Nghost:              0 ave           0 max           0 min
Histogram: 1 0 0 0 0 0 0 0 0 0
Neighs:              1 ave           1 max           1 min
Histogram: 1 0 0 0 0 0 0 0 0 0

Total # of neighbors = 1
Ave neighs/atom = 0.5
Neighbor list builds = 904
Dangerous builds = 824
Total wall time: 0:00:26
