LAMMPS (21 Nov 2023 - Development - stable_29Oct2020-13897-g851db3a531-modified)
# Test
# This test is for five different shape types, the expansion coefficients
# for which are supplied by the files: A-anm-00001.dat, cement-anm.dat,
# class_a.dat, class_b.dat, and class_c.dat.

# Particles are placed randomly in the box (with overlaps), and assigned
# a random initial velcoity.

atom_style	shdem 7  120 A-anm-00001.dat cement-anm.dat class_A.dat class_B.dat class_C.dat
units		si
newton          on
neigh_modify	delay 0 every 100 check yes

###############################################
# Geometry-related parameters
###############################################

variable	box_side equal 1500

region		boxreg block 0.0 ${box_side} 0.0 ${box_side} 0.0 ${box_side}
region		boxreg block 0.0 1500 0.0 ${box_side} 0.0 ${box_side}
region		boxreg block 0.0 1500 0.0 1500 0.0 ${box_side}
region		boxreg block 0.0 1500 0.0 1500 0.0 1500
create_box	5 boxreg
Created orthogonal box = (0 0 0) to (1500 1500 1500)
  1 by 1 by 1 MPI processor grid
change_box	all boundary  p p p
Changing box ...

###############################################
# Create 200 particles of each shape
###############################################

create_atoms    1 random 200 12345 boxreg  maxtry  100000
Created 200 atoms
  using lattice units in orthogonal box = (0 0 0) to (1500 1500 1500)
  create_atoms CPU = 0.001 seconds
create_atoms    2 random 200 56945 boxreg  maxtry  100000
Created 200 atoms
  using lattice units in orthogonal box = (0 0 0) to (1500 1500 1500)
  create_atoms CPU = 0.000 seconds
create_atoms    3 random 200 23795 boxreg  maxtry  100000
Created 200 atoms
  using lattice units in orthogonal box = (0 0 0) to (1500 1500 1500)
  create_atoms CPU = 0.000 seconds
create_atoms    4 random 200 95011 boxreg  maxtry  100000
Created 200 atoms
  using lattice units in orthogonal box = (0 0 0) to (1500 1500 1500)
  create_atoms CPU = 0.000 seconds
create_atoms    5 random 200  4669 boxreg  maxtry  100000
Created 200 atoms
  using lattice units in orthogonal box = (0 0 0) to (1500 1500 1500)
  create_atoms CPU = 0.000 seconds

set             type *  mass    1.0
Setting atom values ...
  1000 settings made for mass


### Setting up random velocities

velocity all create 1.0e+22 87287  dist gaussian

## Setting-up sh  shape type for atom types

set		type 1 sh/shape 1
Setting atom values ...
  200 settings made for sh/shape
set		type 2 sh/shape 2
Setting atom values ...
  200 settings made for sh/shape
set		type 3 sh/shape 3
Setting atom values ...
  200 settings made for sh/shape
set		type 4 sh/shape 4
Setting atom values ...
  200 settings made for sh/shape
set		type 5 sh/shape 5
Setting atom values ...
  200 settings made for sh/shape

set		group all sh/quat/random 4
Setting atom values ...
  1000 settings made for sh/quat/random

fix		time_fix all nve/sh


thermo 1

compute TransKE all ke
compute RotKE   all erotate/shdem
compute PEcalc  all efunction/shdem

variable ETotal equal "c_PEcalc + c_TransKE + c_RotKE"
variable ERot   equal "C_RotKE"
thermo_style custom	step	c_PEcalc c_TransKE c_RotKE v_ETotal

# The pair stype is "sh-dem" and the coefficients are
# k_n = 1.0e-05, alpha = 2, L = 30 (number of quadrature points for overlap)

pair_style 	shdem
pair_coeff 	* * 1.0e-02 2.0 30


timestep	1.0e-04
run		10000
Generated 0 of 10 mixed pair_coeff terms from geometric mixing rule
Neighbor list info ...
  update: every = 100 steps, delay = 0 steps, check = yes
  max neighbors/atom: 2000, page size: 100000
  master list distance cutoff = 31.319045
  ghost atom cutoff = 31.319045
  binsize = 15.659523, bins = 96 96 96
  1 neighbor lists, perpetual/occasional/extra = 1 0 0
  (1) pair shdem, perpetual
      attributes: half, newton on
      pair build: half/bin/atomonly/newton
      stencil: half/bin/3d
      bin: standard
Per MPI rank memory allocation (min/avg/max) = 9.308 | 9.308 | 9.308 Mbytes
   Step        c_PEcalc      c_TransKE       c_RotKE        v_ETotal   
         0   0.041004302    206.89046      0              206.93147    
         1   0.077603383    206.8483       0.0037102804   206.92961    
         2   0.080218601    206.8327       0.014841116    206.92776    
         3   0.048850416    206.84366      0.033392274    206.9259     
         4  -0.016499427    206.88118      0.059363221    206.92405    
         5  -0.11582789     206.94526      0.092753121    206.92219    
         6  -0.24913063     207.0359       0.13356084     206.92033    
         7  -0.41640204     207.1531       0.18178494     206.91848    
         8  -0.61763519     207.29683      0.23742369     206.91662    
         9  -0.8528219      207.46711      0.30047504     206.91477    
        10  -1.1219527      207.66393      0.37093667     206.91291    
        11  -1.42501        207.88726      0.44880622     206.91106    
        12  -1.7619826      208.1371       0.53408084     206.9092     
        13  -2.1328636      208.41345      0.62675702     206.90735    
        14  -2.5376384      208.7163       0.72683123     206.90549    
        15  -2.9762909      209.04563      0.83429964     206.90364    
        16  -3.448804       209.40143      0.94915811     206.90178    
        17  -3.9551591      209.78368      1.0714022      206.89993    
        18  -4.4953365      210.19238      1.2010272      206.89807    
        19  -5.0693151      210.62751      1.338028       206.89622    
        20  -5.6770726      211.08904      1.4823994      206.89437    
        21  -6.3185853      211.57696      1.6341357      206.89251    
        22  -6.9938284      212.09126      1.7932309      206.89066    
        23  -7.7027755      212.63191      1.9596789      206.88881    
        24  -8.4453993      213.19889      2.1334731      206.88696    
        25  -9.2216645      213.79217      2.3146076      206.88511    
        26  -10.031541      214.41173      2.5030754      206.88326    
        27  -10.875004      215.05755      2.6988682      206.88141    
        28  -11.75202       215.72961      2.9019784      206.87956    
        29  -12.662557      216.42788      3.1123978      206.87772    
        30  -13.606579      217.15233      3.3301183      206.87587    
        31  -14.584049      217.90294      3.5551313      206.87403    
        32  -15.59493       218.67968      3.7874278      206.87218    
        33  -16.639183      219.48252      4.0269986      206.87034    
        34  -17.716769      220.31143      4.2738344      206.8685     
        35  -18.827645      221.16637      4.5279254      206.86665    
        36  -19.971768      222.04732      4.7892614      206.86481    
        37  -21.149096      222.95424      5.0578322      206.86297    
        38  -22.360139      223.88745      5.3338476      206.86115    
        39  -23.604941      224.84694      5.617314       206.85931    
        40  -24.88287       225.83233      5.9080052      206.85747    
        41  -26.193876      226.84359      6.2059097      206.85563    
        42  -27.537911      227.88068      6.5110158      206.85379    
        43  -28.914921      228.94356      6.8233113      206.85195    
        44  -30.324855      230.03219      7.1427838      206.85011    
        45  -31.767658      231.14652      7.4694205      206.84828    
        46  -33.243276      232.28651      7.8032086      206.84645    
        47  -34.751652      233.45213      8.1441348      206.84461    
        48  -36.292727      234.64332      8.4921854      206.84278    
        49  -37.866444      235.86005      8.8473467      206.84095    
        50  -39.472742      237.10226      9.2096045      206.83913    
        51  -41.111559      238.36991      9.5789444      206.8373     
        52  -42.782834      239.66296      9.9553517      206.83547    
        53  -44.486502      240.98134      10.338811      206.83365    
        54  -46.222498      242.32502      10.729308      206.83183    
        55  -47.990756      243.69394      11.126827      206.83001    
        56  -49.790645      245.08776      11.531069      206.82818    
        57  -51.622043      246.50641      11.942004      206.82637    
        58  -53.48546       247.95013      12.359893      206.82456    
        59  -55.380824      249.41886      12.784719      206.82276    
        60  -57.308063      250.91255      13.216466      206.82095    
        61  -59.267105      252.43114      13.655117      206.81915    
        62  -61.256975      253.97408      14.100229      206.81733    
        63  -63.277516      255.54129      14.551765      206.81554    
        64  -65.329578      257.1332       15.010125      206.81375    
        65  -67.413082      258.74975      15.475292      206.81196    
        66  -69.534612      260.39561      15.949299      206.8103     
        67  -71.694677      262.07094      16.43222       206.80849    
        68  -73.88635       263.77101      16.922011      206.80667    
        69  -76.109548      265.49576      17.418652      206.80486    
        70  -78.364186      267.24512      17.922124      206.80305    
        71  -80.657072      269.02361      18.434828      206.80137    
        72  -82.988682      270.83137      18.956843      206.79953    
        73  -85.351847      272.66378      19.485762      206.79769    
        74  -87.746474      274.52077      20.021566      206.79586    
        75  -90.172506      276.40231      20.564228      206.79403    
        76  -92.62985       278.30832      21.113728      206.7922     
        77  -95.118394      280.23873      21.670043      206.79038    
        78  -97.638044      282.19345      22.233151      206.78855    
        79  -100.1887       284.17241      22.803028      206.78673    
        80  -102.77027      286.17553      23.379653      206.78492    
        81  -105.3816       288.20201      23.962676      206.78309    
        82  -108.02253      290.25175      24.552062      206.78128    
        83  -110.69402      292.32538      25.14811       206.77947    
        84  -113.39597      294.42284      25.750797      206.77767    
        85  -116.12739      296.54353      26.359723      206.77586    
        86  -118.88811      298.68732      26.97486       206.77407    
        87  -121.67892      300.85465      27.596553      206.77228    
        88  -124.49974      303.04546      28.224772      206.77049    
        89  -127.34956      305.25925      28.859009      206.7687     
        90  -130.22682      307.49517      29.498551      206.76691    
        91  -133.13068      309.75265      30.14315       206.76513    
        92  -136.06237      312.03232      30.793429      206.76337    
        93  -139.02338      314.33497      31.450032      206.76162    
        94  -142.01359      316.66053      32.112934      206.75987    
        95  -145.03289      319.00891      32.782109      206.75813    
        96  -148.08117      321.38003      33.457529      206.75639    
        97  -151.16491      323.77805      34.141587      206.75473    
        98  -154.28438      326.20302      34.834326      206.75297    
        99  -157.43274      328.65062      35.533323      206.75121    
       100  -160.60986      331.12077      36.23855       206.74946    
       101  -163.81563      333.61336      36.949978      206.74771    
       102  -167.05058      336.12872      37.667823      206.74597    
       103  -170.3146       338.66676      38.392064      206.74422    
       104  -173.60693      341.22698      39.122429      206.74248    
       105  -176.92744      343.80929      39.858889      206.74074    
       106  -180.27547      346.41282      40.601647      206.739      
       107  -183.65032      349.03639      41.351174      206.73725    
       108  -187.05237      351.68065      42.107227      206.73551    
       109  -190.48208      354.34657      42.86929       206.73378    
       110  -193.93752      357.0331       43.636458      206.73204    
       111  -197.41848      359.74012      44.408679      206.73032    
       112  -200.92665      362.46847      45.186791      206.72861    
       113  -204.46191      365.21805      45.970763      206.7269     
       114  -208.02293      367.98822      46.759894      206.72519    
       115  -211.60953      370.77888      47.554138      206.72349    
       116  -215.22277      373.59044      48.354126      206.7218     
       117  -218.86249      376.42278      49.159823      206.72011    
       118  -222.52585      379.27374      49.970507      206.7184     
       119  -226.21261      382.1432       50.786139      206.71673    
       120  -229.92545      385.03312      51.60738       206.71506    
       121  -233.66016      387.94065      52.432865      206.71335    
       122  -237.41505      390.86482      53.261919      206.71169    
       123  -241.19405      393.80827      54.095825      206.71004    
       124  -244.99843      396.77167      54.935164      206.7084     
       125  -248.82808      399.75494      55.779907      206.70677    
       126  -252.68285      402.75796      56.630019      206.70514    
       127  -256.56259      405.78063      57.48547       206.70351    
       128  -260.46433      408.82148      58.34471       206.70186    
       129  -264.38622      411.87949      59.206972      206.70024    
       130  -268.32333      414.94927      60.072632      206.69857    
       131  -272.2815       418.03452      60.943994      206.69702    
       132  -276.26848      421.14176      61.822142      206.69542    
       133  -280.27897      424.26701      62.705784      206.69382    
       134  -284.31282      427.41015      63.5949        206.69223    
       135  -288.37034      430.57191      64.489071      206.69064    
       136  -292.4496       433.75103      65.387614      206.68905    
       137  -296.55038      436.94737      66.290484      206.68747    
       138  -300.67438      440.16198      67.198298      206.6859     
       139  -304.82144      443.39476      68.111021      206.68434    
       140  -308.98818      446.64381      69.02712       206.68276    
       141  -313.17433      449.909        69.946537      206.68121    
       142  -317.38304      453.19197      70.870731      206.67967    
       143  -321.61417      456.49263      71.799669      206.67813    
       144  -325.86757      459.81085      72.733317      206.67659    
       145  -330.14309      463.14651      73.671641      206.67506    
       146  -334.44058      466.49951      74.614606      206.67354    
       147  -338.75989      469.86973      75.562179      206.67201    
       148  -343.10088      473.25705      76.514324      206.6705     
       149  -347.46338      476.66135      77.471006      206.66898    
       150  -351.84724      480.08252      78.432192      206.66747    
       151  -356.25232      483.52044      79.397845      206.66597    
       152  -360.67846      486.975        80.367931      206.66447    
       153  -365.1255       490.44606      81.342415      206.66297    
       154  -369.60485      493.94011      82.32629       206.66156    
       155  -374.11452      497.45595      83.318593      206.66003    
       156  -378.64109      500.9861       84.3135        206.65851    
       157  -383.18649      504.53076      85.312736      206.65701    
       158  -387.75213      508.09059      86.317046      206.65551    
       159  -392.33797      511.66634      87.325639      206.65402    
       160  -396.94384      515.25789      88.33848       206.65253    
       161  -401.5696       518.86511      89.355533      206.65104    
       162  -406.21508      522.48788      90.376761      206.64956    
       163  -410.88012      526.12608      91.402127      206.64809    
       164  -415.56456      529.77958      92.431596      206.64662    
       165  -420.26825      533.44827      93.465129      206.64515    
       166  -424.99103      537.13202      94.502691      206.64369    
       167  -429.73272      540.83071      95.544245      206.64223    
       168  -434.49318      544.54421      96.589753      206.64078    
       169  -439.26982      548.27076      97.638376      206.63932    
       170  -444.06242      552.01024      98.690064      206.63788    
       171  -448.88388      555.7729       99.747507      206.63652    
       172  -453.73436      559.55875      100.8107       206.63508    
       173  -458.60297      563.35894      101.87768      206.63365    
       174  -463.48561      567.17091      102.9469       206.6322     
       175  -468.38203      570.99451      104.01831      206.63078    
       176  -473.29604      574.83203      105.09337      206.62937    
       177  -478.22746      578.68336      106.17206      206.62796    
       178  -483.17614      582.54837      107.25433      206.62656    
       179  -488.14191      586.42693      108.34014      206.62516    
       180  -493.13136      590.32366      109.43151      206.62381    
       181  -498.14452      594.2385       110.52843      206.62241    
       182  -503.17437      598.16658      111.62881      206.62102    
       183  -508.22076      602.10776      112.73262      206.61963    
       184  -513.29922      606.07332      113.84424      206.61834    
       185  -518.40714      610.06149      114.96257      206.61693    
       186  -523.52548      614.05923      116.08177      206.61552    
       187  -528.65693      618.06817      117.2029       206.61414    
       188  -533.80429      622.08974      118.32732      206.61277    
       189  -538.9741       626.13049      119.45506      206.61145    
       190  -544.16436      630.18915      120.58528      206.61008    
       191  -549.36808      634.25893      121.71787      206.60872    
       192  -554.58711      638.34091      122.85357      206.60737    
       193  -559.83459      642.44413      123.99656      206.6061     
       194  -565.10644      646.56622      125.14494      206.60472    
       195  -570.38896      650.69788      126.29446      206.60338    
       196  -575.69637      654.8478       127.45066      206.60209    
       197  -581.02559      659.01425      128.61206      206.60072    
       198  -586.36613      663.19059      129.77492      206.59938    
       199  -591.71781      667.37652      130.93932      206.59803    
       200  -597.08039      671.5719       132.10519      206.5967     
       201  -602.45484      675.77682      133.27339      206.59537    
       202  -607.83488      679.98687      134.44203      206.59403    
       203  -613.22237      684.20354      135.61157      206.59273    
       204  -618.62131      688.42988      136.78286      206.59143    
       205  -624.03148      692.66576      137.95586      206.59014    
       206  -629.47074      696.92406      139.13563      206.58895    
       207  -634.9393       701.20477      140.32218      206.58766    
       208  -640.43851      705.5083       141.51667      206.58646    
       209  -645.96643      709.8337       142.71788      206.58515    
       210  -651.50229      714.16722      143.91891      206.58384    
       211  -657.04809      718.5097       145.12094      206.58256    
       212  -662.62007      722.87308      146.32834      206.58135    
       213  -668.21836      727.25734      147.54108      206.58007    
       214  -673.826        731.64985      148.75493      206.57878    
       215  -679.44278      736.05045      149.96983      206.57751    
       216  -685.07142      740.46059      151.18707      206.57624    
       217  -690.71175      744.88013      152.40661      206.57498    
       218  -696.3615       749.30785      153.62737      206.57372    
       219  -702.01513      753.73895      154.84862      206.57244    
       220  -707.67445      758.1743       156.07136      206.57121    
       221  -713.3447       762.61845      157.29622      206.56997    
       222  -719.02568      767.07125      158.52318      206.56875    
       223  -724.71645      771.53123      159.75274      206.56752    
       224  -730.41682      775.99825      160.98488      206.5663     
       225  -736.12633      780.47198      162.21943      206.56508    
       226  -741.84231      784.9504       163.45577      206.56386    
       227  -747.56244      789.43316      164.69193      206.56265    
       228  -753.289        793.92199      165.92846      206.56145    
       229  -759.02504      798.4185       167.16681      206.56027    
       230  -764.72784      802.8983       168.38846      206.55892    
       231  -770.39647      807.36106      169.59322      206.55781    
       232  -776.07337      811.83065      170.79942      206.55671    
       233  -781.7667       816.3126       172.00974      206.55565    
       234  -787.48994      820.8175       173.22704      206.55461    
       235  -793.23482      825.33971      174.44861      206.5535     
       236  -798.9807       829.86305      175.67002      206.55237    
       237  -804.72732      834.38736      176.89124      206.55127    
       238  -810.47967      838.91695      178.11291      206.55018    
       239  -816.25124      843.46069      179.3397       206.54916    
       240  -822.0442       848.0197       180.57258      206.54807    
       241  -827.84461      852.5848       181.80679      206.54698    
       242  -833.6691       857.16733      183.04774      206.54597    
       243  -839.5178       861.76724      184.29543      206.54488    
       244  -845.3699       866.37007      185.5436       206.54377    
       245  -851.22519      870.97567      186.79221      206.54269    
       246  -857.08431      875.58533      188.04059      206.54161    
       247  -862.94493      880.19777      189.28769      206.54053    
       248  -868.81082      884.81533      190.53497      206.53948    
       249  -874.68399      889.43902      191.78339      206.53843    
       250  -880.56319      894.0677       193.03286      206.53738    
       251  -886.44792      898.70015      194.2841       206.53633    
       252  -892.33802      903.33623      195.53708      206.53529    
       253  -898.23364      907.97689      196.791        206.53425    
       254  -904.13165      912.62036      198.0445       206.53321    
       255  -910.03181      917.26646      199.29754      206.53219    
       256  -915.93692      921.91668      200.55141      206.53117    
       257  -921.84326      926.56892      201.80448      206.53015    
       258  -927.75056      931.22302      203.05668      206.52915    
       259  -933.66214      935.88073      204.30956      206.52815    
       260  -939.57594      940.53975      205.56334      206.52714    
       261  -945.48499      945.19593      206.81519      206.52613    
       262  -951.38792      949.84932      208.06375      206.52515    
       263  -957.29036      954.50237      209.31216      206.52417    
       264  -963.19296      959.15597      210.5602       206.5232     
       265  -969.09681      963.81158      211.80748      206.52225    
       266  -975.00084      968.46836      213.05378      206.52129    
       267  -980.90486      973.12618      214.29904      206.52035    
       268  -986.81372      977.78781      215.54533      206.51942    
       269  -992.72394      982.45149      216.79093      206.51848    
       270  -998.63363      987.11599      218.0352       206.51756    
       271  -1004.5439      991.78125      219.27925      206.51663    
       272  -1010.4492      996.44194      220.52292      206.51569    
       273  -1016.3514      1001.0995      221.76671      206.51479    
       274  -1022.2558      1005.759       223.01072      206.51388    
       275  -1028.1622      1010.4203      224.25492      206.51299    
       276  -1034.0657      1015.0807      225.49701      206.51208    
       277  -1039.9606      1019.7368      226.735        206.51118    
       278  -1045.8518      1024.391       227.97114      206.51031    
       279  -1051.7356      1029.0419      229.20312      206.50942    
       280  -1057.6132      1033.6892      230.43261      206.50856    
       281  -1063.4935      1038.3374      231.66381      206.50771    
       282  -1069.4526      1043.0394      232.92035      206.50712    
       283  -1075.5083      1047.8083      234.2063       206.50627    
       284  -1081.5792      1052.5899      235.49466      206.50534    
       285  -1087.6427      1057.3668      236.78032      206.50441    
       286  -1093.718       1062.1518      238.0698       206.50356    
       287  -1099.8038      1066.9453      239.36114      206.50263    
       288  -1105.8832      1071.7356      240.64932      206.50173    
       289  -1111.9602      1076.5249      241.93615      206.50083    
       290  -1118.0316      1081.3112      243.22026      206.49993    
       291  -1124.1001      1086.0949      244.50425      206.49905    
       292  -1130.1687      1090.8775      245.78944      206.49818    
       293  -1136.234       1095.6586      247.07266      206.4973     
       294  -1142.2929      1100.4367      248.35266      206.49643    
       295  -1148.3487      1105.2131      249.63115      206.49557    
       296  -1154.4005      1109.9874      250.90784      206.49471    
       297  -1160.4482      1114.7593      252.18271      206.49387    
       298  -1166.5132      1119.5444      253.46192      206.49309    
       299  -1172.5957      1124.3425      254.74546      206.49224    
       300  -1178.6712      1129.1355      256.0271       206.49139    
       301  -1184.7397      1133.9235      257.30681      206.49055    
       302  -1190.804       1138.7091      258.58463      206.48972    
       303  -1196.8612      1143.4908      259.85929      206.48889    
       304  -1202.914       1148.27        261.13216      206.48808    
       305  -1208.9614      1153.0458      262.40285      206.48726    
       306  -1215.022       1157.831       263.67746      206.48652    
       307  -1221.0979      1162.6256      264.958        206.4857     
       308  -1227.1694      1167.4151      266.23922      206.48489    
       309  -1233.2461      1172.2066      267.52356      206.48411    
       310  -1239.3257      1176.9998      268.80919      206.4833     
       311  -1245.3999      1181.7893      270.09311      206.4825     
       312  -1251.4659      1186.5737      271.37397      206.48169    
       313  -1257.5237      1191.3528      272.65173      206.4809     
       314  -1263.5784      1196.1286      273.93         206.48012    
       315  -1269.6275      1200.8993      275.20751      206.47933    
       316  -1275.6679      1205.6642      276.48226      206.47855    
       317  -1281.6921      1210.4163      277.75354      206.47776    
       318  -1287.7152      1215.1681      279.02418      206.47704    
       319  -1293.7626      1219.9396      280.29932      206.47633    
       320  -1299.8337      1224.7289      281.5804       206.47561    
       321  -1305.9088      1229.5212      282.86239      206.47483    
       322  -1311.9754      1234.308       284.14154      206.47407    
       323  -1318.0379      1239.0915      285.41966      206.47332    
       324  -1324.0959      1243.8718      286.69671      206.47257    
       325  -1330.1495      1248.6486      287.97266      206.47183    
       326  -1336.1983      1253.4219      289.24748      206.47109    
       327  -1342.2398      1258.1897      290.52041      206.47035    
       328  -1348.2736      1262.9518      291.79141      206.46962    
       329  -1354.2941      1267.7053      293.05772      206.46888    
       330  -1360.2923      1272.4446      294.31584      206.46815    
       331  -1366.2719      1277.172       295.56729      206.46744    
       332  -1372.2385      1281.8911      296.81419      206.46674    
       333  -1378.1965      1286.6041      298.05839      206.46605    
       334  -1384.1488      1291.3128      299.30128      206.46537    
       335  -1390.0953      1296.0171      300.54283      206.4647     
       336  -1396.0331      1300.7154      301.78173      206.46402    
       337  -1401.9588      1305.4056      303.0165       206.46335    
       338  -1407.8718      1310.0877      304.24676      206.46269    
       339  -1413.7755      1314.7636      305.47395      206.46203    
       340  -1419.6728      1319.4345      306.69968      206.46139    
       341  -1425.5571      1324.0959      307.92191      206.46073    
       342  -1431.4239      1328.7453      309.13874      206.46009    
       343  -1437.2797      1333.387       310.35217      206.45946    
       344  -1443.1287      1338.0235      311.56404      206.45884    
       345  -1448.9644      1342.6511      312.77148      206.4582     
       346  -1454.8055      1347.2822      313.98097      206.45764    
       347  -1460.6556      1351.9187      315.19392      206.45701    
       348  -1466.5145      1356.5614      316.40952      206.45645    
       349  -1472.385       1361.2117      317.62918      206.45583    
       350  -1478.248       1365.8561      318.84718      206.45521    
       351  -1484.1034      1370.4945      320.06347      206.4546     
       352  -1489.957       1375.1308      321.28023      206.45401    
       353  -1495.8088      1379.7647      322.49744      206.4534     
       354  -1501.6505      1384.3912      323.7121       206.45279    
       355  -1507.4744      1389.006       324.92058      206.45217    
       356  -1513.2738      1393.6031      326.12225      206.45156    
       357  -1519.0535      1398.185       327.3194       206.45098    
       358  -1524.8219      1402.7589      328.51342      206.4504     
       359  -1530.5791      1407.3243      329.70468      206.44982    
       360  -1536.3251      1411.8811      330.89318      206.44925    
       361  -1542.0793      1416.4427      332.08532      206.44873    
       362  -1547.8419      1421.009       333.28107      206.44816    
       363  -1553.5953      1425.5681      334.47484      206.44759    
       364  -1559.3358      1430.1174      335.66543      206.44702    
       365  -1565.0593      1434.6548      336.85093      206.44646    
       366  -1570.7827      1439.1938      338.03481      206.44594    
       367  -1576.5066      1443.7348      339.21717      206.44539    
       368  -1582.207       1448.2593      340.39249      206.44482    
       369  -1587.8996      1452.7761      341.5678       206.44431    
       370  -1593.5904      1457.2886      342.74559      206.44376    
       371  -1599.2611      1461.7842      343.92011      206.44321    
       372  -1604.9275      1466.2763      345.09392      206.44271    
       373  -1610.5961      1470.7707      346.26753      206.44217    
       374  -1616.2548      1475.2574      347.43906      206.44165    
       375  -1621.9002      1479.7343      348.60703      206.44111    
       376  -1627.5323      1484.2015      349.77141      206.4406     
       377  -1633.1515      1488.6592      350.93241      206.44008    
       378  -1638.7577      1493.1073      352.08999      206.43957    
       379  -1644.3535      1497.5472      353.2454       206.43906    
       380  -1649.9387      1501.9787      354.39859      206.43856    
       381  -1655.5018      1506.3932      355.54669      206.43803    
       382  -1661.0429      1510.7907      356.68973      206.43754    
       383  -1666.5699      1515.1779      357.82904      206.43705    
       384  -1672.0828      1519.5547      358.96462      206.43657    
       385  -1677.5821      1523.9215      360.09672      206.43608    
       386  -1683.0649      1528.2767      361.22375      206.43561    
       387  -1688.5336      1532.6218      362.34696      206.43514    
       388  -1693.9914      1536.9582      363.46792      206.43467    
       389  -1699.4352      1541.2831      364.58636      206.43421    
       390  -1704.865       1545.5964      365.70229      206.43375    
       391  -1710.2837      1549.8994      366.81762      206.43329    
       392  -1715.6917      1554.1923      367.93221      206.43284    
       393  -1721.0862      1558.4748      369.04375      206.43238    
       394  -1726.4669      1562.7464      370.15238      206.43194    
       395  -1731.8319      1567.0065      371.25688      206.43149    
       396  -1737.1772      1571.2511      372.35712      206.43104    
       397  -1742.504       1575.481       373.45363      206.4306     
       398  -1747.8166      1579.7002      374.54653      206.43017    
       399  -1753.1134      1583.9076      375.63561      206.42974    
       400  -1758.3917      1588.1008      376.72015      206.42931    
       401  -1763.6552      1592.2825      377.80161      206.42889    
       402  -1768.9069      1596.4547      378.8807       206.42848    
       403  -1774.147       1600.616       379.95905      206.42807    
       404  -1779.3882      1604.7759      381.03999      206.42768    
       405  -1784.6278      1608.934       382.12109      206.42727    
       406  -1789.8463      1613.0767      383.19642      206.42685    
       407  -1795.046       1617.2057      384.26672      206.42645    
       408  -1800.2472      1621.3354      385.33793      206.42607    
       409  -1805.4376      1625.4585      386.40471      206.42565    
       410  -1810.6003      1629.5631      387.46245      206.42526    
       411  -1815.7752      1633.6763      388.52383      206.42492    
       412  -1820.9592      1637.7963      389.58739      206.42452    
       413  -1826.1247      1641.903       390.64578      206.42413    
       414  -1831.2776      1645.9997      391.70166      206.42374    
       415  -1836.4151      1650.0847      392.75381      206.42335    
       416  -1841.5372      1654.1579      393.80222      206.42297    
       417  -1846.6498      1658.2231      394.84926      206.4226     
       418  -1851.7529      1662.2803      395.89492      206.42223    
       419  -1856.8403      1666.324       396.93818      206.42185    
       420  -1861.9114      1670.354       397.97889      206.42148    
       421  -1866.969       1674.3732      399.01689      206.42111    
       422  -1872.0134      1678.3819      400.05231      206.42075    
       423  -1877.0447      1682.3799      401.08513      206.42038    
       424  -1882.06        1686.3659      402.11413      206.42002    
       425  -1887.056       1690.338       403.13767      206.41966    
       426  -1892.0275      1694.2927      404.15409      206.4193     
       427  -1896.9768      1698.2312      405.16463      206.41896    
       428  -1901.9084      1702.1563      406.1707       206.41861    
       429  -1906.8174      1706.0658      407.1699       206.41827    
       430  -1911.7072      1709.9615      408.16373      206.41794    
       431  -1916.5787      1713.8423      409.15406      206.4176     
       432  -1921.4302      1717.7061      410.14138      206.41727    
       433  -1926.2667      1721.557       411.1266       206.41695    
       434  -1931.0896      1725.397       412.10921      206.41663    
       435  -1935.8964      1729.2247      413.088        206.41631    
       436  -1940.6868      1733.0399      414.06296      206.41599    
       437  -1945.4636      1736.844       415.0353       206.41568    
       438  -1950.2208      1740.6335      416.00268      206.41536    
       439  -1954.9716      1744.4184      416.96827      206.41508    
       440  -1959.7214      1748.2008      417.93544      206.41477    
       441  -1964.4571      1751.9706      418.90099      206.41446    
       442  -1969.1788      1755.7291      419.86387      206.41416    
       443  -1973.8967      1759.4836      420.82697      206.41388    
       444  -1978.6107      1763.234       421.79029      206.41357    
       445  -1983.3051      1766.9699      422.74851      206.41327    
       446  -1987.9798      1770.6911      423.70166      206.41297    
       447  -1992.6298      1774.3945      424.64794      206.41267    
       448  -1997.2514      1778.0783      425.58547      206.41238    
       449  -2001.8525      1781.7474      426.51726      206.41209    
       450  -2006.4347      1785.4019      427.4446       206.41181    
       451  -2010.9939      1789.0397      428.36569      206.41153    
       452  -2015.53        1792.6606      429.28065      206.41126    
       453  -2020.0473      1796.2669      430.19134      206.41099    
       454  -2024.5448      1799.8586      431.09697      206.41072    
       455  -2029.0234      1803.4359      431.99801      206.41045    
       456  -2033.4861      1807.0005      432.89575      206.4102     
       457  -2037.9309      1810.5515      433.78929      206.40994    
       458  -2042.3693      1814.0971      434.68197      206.4097     
       459  -2046.805       1817.6392      435.57533      206.40944    
       460  -2051.2263      1821.1694      436.46602      206.40919    
       461  -2055.6305      1824.6865      437.35291      206.40894    
       462  -2060.0146      1828.1885      438.23469      206.40869    
       463  -2064.3919      1831.6843      439.11601      206.40845    
       464  -2068.7655      1835.1755      439.99817      206.40821    
       465  -2073.1242      1838.6546      440.87758      206.40796    
       466  -2077.4516      1842.1115      441.74783      206.4077     
       467  -2081.7445      1845.5441      442.60793      206.40746    
       468  -2086.0307      1848.9706      443.4673       206.40724    
       469  -2090.3183      1852.3984      444.32693      206.40702    
       470  -2094.5963      1855.8193      445.18384      206.40679    
       471  -2098.855       1859.225       446.03661      206.40655    
       472  -2103.0889      1862.6124      446.88279      206.40632    
       473  -2107.2973      1865.9818      447.72167      206.40609    
       474  -2111.4926      1869.3405      448.55796      206.40588    
       475  -2115.6795      1872.6913      449.39382      206.40566    
       476  -2119.8514      1876.0299      450.22696      206.40544    
       477  -2124.0052      1879.353       451.05745      206.40522    
       478  -2128.1404      1882.6603      451.88511      206.40501    
       479  -2132.2601      1885.955       452.70985      206.40479    
       480  -2136.3554      1889.2305      453.52941      206.40457    
       481  -2140.4263      1892.4869      454.34381      206.40436    
       482  -2144.4743      1895.7256      455.15291      206.40415    
       483  -2148.4944      1898.9438      455.95458      206.40395    
       484  -2152.4916      1902.1452      456.7501       206.40374    
       485  -2156.465       1905.3295      457.53902      206.40354    
       486  -2160.4178      1908.4984      458.3227       206.40335    
       487  -2164.3558      1911.6552      459.10375      206.40316    
       488  -2168.2741      1914.797       459.88004      206.40297    
       489  -2172.169       1917.9216      460.65024      206.40278    
       490  -2176.0446      1921.0301      461.41711      206.4026     
       491  -2179.9016      1924.1233      462.18071      206.40241    
       492  -2183.7411      1927.2029      462.94042      206.40223    
       493  -2187.5656      1930.2702      463.69751      206.40205    
       494  -2191.3733      1933.3239      464.45127      206.40188    
       495  -2195.1551      1936.3567      465.20014      206.40169    
       496  -2198.9078      1939.3668      465.9425       206.40152    
       497  -2202.6392      1942.3612      466.67943      206.40135    
       498  -2206.3547      1945.3426      467.41327      206.40118    
       499  -2210.0521      1948.3099      468.14326      206.40101    
       500  -2213.7297      1951.2617      468.8688       206.40085    
       501  -2217.3873      1954.1968      469.59113      206.40068    
       502  -2221.0219      1957.1123      470.31016      206.40052    
       503  -2224.637       1960.0113      471.02597      206.40036    
       504  -2228.234       1962.8953      471.73888      206.4002     
       505  -2231.8058      1965.7587      472.44714      206.40004    
       506  -2235.3536      1968.6021      473.15132      206.39988    
       507  -2238.8806      1971.4285      473.85181      206.39973    
       508  -2242.3894      1974.2406      474.54846      206.39958    
       509  -2245.8841      1977.0409      475.24267      206.39943    
       510  -2249.3646      1979.8295      475.93442      206.39928    
       511  -2252.841       1982.6139      476.62628      206.39915    
       512  -2256.3118      1985.3932      477.31763      206.399      
       513  -2259.7637      1988.1554      478.0071       206.39885    
       514  -2263.1957      1990.9003      478.69409      206.39871    
       515  -2266.6036      1993.6278      479.37437      206.39856    
       516  -2269.9825      1996.3345      480.04642      206.39842    
       517  -2273.3378      1999.0237      480.71238      206.39828    
       518  -2276.6811      2001.7036      481.37562      206.39815    
       519  -2280.0072      2004.3712      482.03402      206.39801    
       520  -2283.3042      2007.0156      482.68652      206.39787    
       521  -2286.5773      2009.6398      483.33528      206.39774    
       522  -2289.8344      2012.2512      483.98079      206.39761    
       523  -2293.0759      2014.8502      484.62314      206.39749    
       524  -2296.3016      2017.4367      485.26232      206.39736    
       525  -2299.5137      2020.0117      485.8992       206.39724    
       526  -2302.709       2022.5735      486.53261      206.39711    
       527  -2305.8851      2025.1206      487.16147      206.39699    
       528  -2309.0497      2027.6571      487.78943      206.39687    
       529  -2312.2034      2030.1833      488.41692      206.39675    
       530  -2315.3392      2032.6954      489.04036      206.39663    
       531  -2318.4566      2035.1935      489.65958      206.39651    
       532  -2321.5567      2037.6782      490.27497      206.3964     
       533  -2324.6416      2040.1505      490.88739      206.39628    
       534  -2327.7069      2042.6075      491.49559      206.39616    
       535  -2330.7499      2045.0475      492.09845      206.39605    
       536  -2333.7829      2047.4795      492.69938      206.39595    
       537  -2336.8087      2049.9051      493.29951      206.39584    
       538  -2339.8183      2052.3178      493.89624      206.39573    
       539  -2342.8051      2054.7136      494.48706      206.39562    
       540  -2345.7697      2057.0929      495.07232      206.39551    
       541  -2348.7174      2059.4588      495.65399      206.39541    
       542  -2351.6562      2061.8166      496.23495      206.39531    
       543  -2354.588       2064.1675      496.81577      206.39521    
       544  -2357.5063      2066.5071      497.39437      206.39511    
       545  -2360.4112      2068.8355      497.97073      206.39501    
       546  -2363.3         2071.151       498.54384      206.3949     
       547  -2366.1704      2073.4524      499.11275      206.3948     
       548  -2369.0236      2075.7393      499.67905      206.39471    
       549  -2371.8583      2078.0108      500.24217      206.39461    
       550  -2374.6714      2080.2654      500.80047      206.39451    
       551  -2377.4644      2082.5042      501.3546       206.39441    
       552  -2380.2387      2084.7289      501.9042       206.39432    
       553  -2382.9964      2086.9405      502.45015      206.39423    
       554  -2385.7391      2089.1401      502.99318      206.39414    
       555  -2388.4624      2091.3248      503.53163      206.39405    
       556  -2391.1637      2093.4927      504.06496      206.39396    
       557  -2393.8459      2095.6457      504.59415      206.39387    
       558  -2396.5136      2097.7868      505.12053      206.39379    
       559  -2399.1656      2099.9155      505.64384      206.3937     
       560  -2401.7933      2102.0264      506.16051      206.39361    
       561  -2404.3992      2104.1212      506.67155      206.39353    
       562  -2406.99        2106.2039      507.17955      206.39345    
       563  -2409.5632      2108.2728      507.68375      206.39337    
       564  -2412.1172      2110.327       508.1835       206.39329    
       565  -2414.6518      2112.3664      508.67864      206.39322    
       566  -2417.1698      2114.3929      509.17012      206.39314    
       567  -2419.6721      2116.4067      509.65842      206.39307    
       568  -2422.1654      2118.4134      510.14503      206.393      
       569  -2424.6494      2120.4128      510.62962      206.39292    
       570  -2427.1121      2122.3959      511.10909      206.39285    
       571  -2429.5531      2124.3624      511.58339      206.39278    
       572  -2431.9768      2126.3155      512.054        206.39271    
       573  -2434.3824      2128.2546      512.52037      206.39264    
       574  -2436.7717      2130.181       512.98319      206.39257    
       575  -2439.1436      2132.0929      513.44313      206.3925     
       576  -2441.4977      2133.9901      513.90007      206.39244    
       577  -2443.8325      2135.8716      514.35325      206.39237    
       578  -2446.1465      2137.7358      514.80293      206.39231    
       579  -2448.4435      2139.5855      515.25026      206.39224    
       580  -2450.7226      2141.4201      515.69474      206.39218    
       581  -2452.9813      2143.2378      516.13563      206.39212    
       582  -2455.2213      2145.0406      516.57267      206.39205    
       583  -2457.4441      2146.8303      517.00584      206.39199    
       584  -2459.6521      2148.608       517.43602      206.39194    
       585  -2461.8462      2150.3736      517.86444      206.39188    
       586  -2464.0227      2152.1247      518.28976      206.39182    
       587  -2466.1828      2153.8624      518.71217      206.39176    
       588  -2468.3303      2155.5882      519.13379      206.39171    
       589  -2470.4663      2157.3035      519.55447      206.39165    
       590  -2472.5877      2159.0073      519.97202      206.3916     
       591  -2474.6893      2160.6962      520.38468      206.39154    
       592  -2476.7717      2162.3706      520.79261      206.39149    
       593  -2478.8366      2164.0317      521.19631      206.39143    
       594  -2480.8847      2165.68        521.59612      206.39138    
       595  -2482.9172      2167.3155      521.99303      206.39133    
       596  -2484.9352      2168.9389      522.38753      206.39128    
       597  -2486.9399      2170.5517      522.77944      206.39123    
       598  -2488.929       2172.1523      523.16786      206.39118    
       599  -2490.9004      2173.7395      523.55204      206.39113    
       600  -2492.8575      2175.3145      523.93409      206.39109    
       601  -2494.8019      2176.8784      524.31461      206.39104    
       602  -2496.7341      2178.4322      524.69284      206.391      
       603  -2498.6508      2179.974       525.06776      206.39095    
       604  -2500.5502      2181.5024      525.43872      206.3909     
       605  -2502.4354      2183.0189      525.80738      206.39086    
       606  -2504.3072      2184.524       526.17393      206.39082    
       607  -2506.1622      2186.0162      526.53669      206.39077    
       608  -2507.9995      2187.495       526.89526      206.39073    
       609  -2509.8231      2188.9627      527.25105      206.39069    
       610  -2511.6342      2190.4201      527.60474      206.39065    
       611  -2513.4328      2191.8672      527.95618      206.39061    
       612  -2515.2184      2193.304       528.30504      206.39057    
       613  -2516.9923      2194.731       528.65178      206.39053    
       614  -2518.7509      2196.1462      528.99514      206.39049    
       615  -2520.4926      2197.5485      529.33453      206.39045    
       616  -2522.2212      2198.9402      529.67141      206.39041    
       617  -2523.9374      2200.3217      530.0061       206.39038    
       618  -2525.6396      2201.6921      530.33786      206.39034    
       619  -2527.3289      2203.0522      530.66697      206.3903     
       620  -2529.0069      2204.4023      530.99484      206.39027    
       621  -2530.6704      2205.7416      531.31899      206.39023    
       622  -2532.3173      2207.0693      531.63822      206.3902     
       623  -2533.951       2208.3856      531.95557      206.39017    
       624  -2535.5746      2209.6928      532.272        206.39013    
       625  -2537.188       2210.9912      532.58687      206.3901     
       626  -2538.7875      2212.2782      532.89936      206.39007    
       627  -2540.3709      2213.5524      533.20853      206.39003    
       628  -2541.9395      2214.8153      533.51424      206.39       
       629  -2543.4928      2216.0659      533.81687      206.38997    
       630  -2545.0319      2217.305       534.11685      206.38994    
       631  -2546.5565      2218.5329      534.41352      206.38991    
       632  -2548.0628      2219.747       534.70568      206.38988    
       633  -2549.5524      2220.9483      534.99394      206.38985    
       634  -2551.0297      2222.1398      535.27978      206.38982    
       635  -2552.4939      2223.321       535.56269      206.38979    
       636  -2553.9457      2224.4924      535.84301      206.38977    
       637  -2555.3882      2225.656       536.12203      206.38974    
       638  -2556.8213      2226.8114      536.39963      206.38971    
       639  -2558.2419      2227.9567      536.67489      206.38969    
       640  -2559.6484      2229.0908      536.94726      206.38966    
       641  -2561.0391      2230.2118      537.217        206.38963    
       642  -2562.4145      2231.3199      537.48428      206.38961    
       643  -2563.7788      2232.4184      537.74998      206.38958    
       644  -2565.1324      2233.5077      538.01423      206.38956    
       645  -2566.4751      2234.5882      538.27642      206.38953    
       646  -2567.8073      2235.6602      538.53666      206.38951    
       647  -2569.1295      2236.7235      538.79551      206.38949    
       648  -2570.4409      2237.7776      539.05281      206.38946    
       649  -2571.7394      2238.8212      539.30762      206.38944    
       650  -2573.0225      2239.8528      539.55916      206.38942    
       651  -2574.291       2240.8725      539.80784      206.38939    
       652  -2575.5438      2241.88        540.05312      206.38937    
       653  -2576.7791      2242.8744      540.29403      206.38935    
       654  -2578.0018      2243.8587      540.53243      206.38933    
       655  -2579.2159      2244.8357      540.7695       206.38931    
       656  -2580.4199      2245.8046      541.00468      206.38929    
       657  -2581.6116      2246.7639      541.23692      206.38927    
       658  -2582.7915      2247.7142      541.46656      206.38925    
       659  -2583.9611      2248.6562      541.69413      206.38923    
       660  -2585.1208      2249.5902      541.91988      206.38921    
       661  -2586.272       2250.5165      542.1447       206.38919    
       662  -2587.4118      2251.4333      542.36765      206.38917    
       663  -2588.5397      2252.3409      542.58801      206.38915    
       664  -2589.6578      2253.2404      542.80655      206.38913    
       665  -2590.7673      2254.1323      543.02417      206.38912    
       666  -2591.8619      2255.012       543.23899      206.3891     
       667  -2592.9384      2255.878       543.44955      206.38908    
       668  -2594.0019      2256.7339      543.65705      206.38906    
       669  -2595.0546      2257.5814      543.86225      206.38905    
       670  -2596.0988      2258.4218      544.066        206.38903    
       671  -2597.1329      2259.254       544.2679       206.38901    
       672  -2598.156       2260.0775      544.46752      206.389      
       673  -2599.1708      2260.8941      544.66566      206.38898    
       674  -2600.1782      2261.7041      544.86308      206.38897    
       675  -2601.1777      2262.5071      545.05961      206.38895    
       676  -2602.168       2263.3024      545.25451      206.38894    
       677  -2603.1496      2264.0905      545.44797      206.38892    
       678  -2604.1205      2264.8699      545.63952      206.38891    
       679  -2605.0808      2265.6405      545.82916      206.38889    
       680  -2606.0317      2266.4037      546.01684      206.38888    
       681  -2606.9731      2267.1594      546.20258      206.38887    
       682  -2607.9038      2267.9066      546.38601      206.38885    
       683  -2608.8219      2268.6442      546.56655      206.38884    
       684  -2609.7309      2269.3744      546.74532      206.38882    
       685  -2610.6319      2270.098       546.92274      206.38881    
       686  -2611.5248      2270.8149      547.09866      206.3888     
       687  -2612.4088      2271.5247      547.27292      206.38878    
       688  -2613.2827      2272.2264      547.4451       206.38877    
       689  -2614.1443      2272.9185      547.61451      206.38876    
       690  -2614.9952      2273.6023      547.78161      206.38875    
       691  -2615.8375      2274.2791      547.9471       206.38873    
       692  -2616.6707      2274.9486      548.11082      206.38872    
       693  -2617.4932      2275.6096      548.27232      206.38871    
       694  -2618.3063      2276.2629      548.43208      206.3887     
       695  -2619.112       2276.9101      548.59056      206.38869    
       696  -2619.9088      2277.5501      548.74737      206.38868    
       697  -2620.6957      2278.1822      548.90225      206.38867    
       698  -2621.4727      2278.8063      549.05509      206.38865    
       699  -2622.2408      2279.4231      549.2063       206.38864    
       700  -2623.0017      2280.0342      549.35618      206.38863    
       701  -2623.7555      2280.6391      549.50507      206.38862    
       702  -2624.5017      2281.2375      549.65281      206.38861    
       703  -2625.2408      2281.8301      549.7993       206.3886     
       704  -2625.9709      2282.4152      549.9443       206.38859    
       705  -2626.6912      2282.9922      550.08761      206.38858    
       706  -2627.4021      2283.5613      550.22938      206.38857    
       707  -2628.1031      2284.1222      550.36952      206.38856    
       708  -2628.7965      2284.6768      550.5082       206.38855    
       709  -2629.4822      2285.2255      550.6453       206.38854    
       710  -2630.1598      2285.7676      550.78071      206.38853    
       711  -2630.8285      2286.3027      550.9143       206.38852    
       712  -2631.4888      2286.8311      551.04623      206.38852    
       713  -2632.1431      2287.3545      551.1771       206.38851    
       714  -2632.7909      2287.8726      551.30679      206.3885     
       715  -2633.4302      2288.384       551.43464      206.38849    
       716  -2634.0597      2288.8881      551.56013      206.38848    
       717  -2634.6799      2289.3849      551.68345      206.38847    
       718  -2635.2927      2289.8758      551.80534      206.38846    
       719  -2635.899       2290.3615      551.92596      206.38846    
       720  -2636.4988      2290.8417      552.04553      206.38845    
       721  -2637.0927      2291.3169      552.1642       206.38844    
       722  -2637.6792      2291.7864      552.28127      206.38843    
       723  -2638.2592      2292.2506      552.39701      206.38843    
       724  -2638.8338      2292.7103      552.51187      206.38842    
       725  -2639.3999      2293.1634      552.62492      206.38841    
       726  -2639.9575      2293.6098      552.73605      206.3884     
       727  -2640.5082      2294.0508      552.84578      206.38839    
       728  -2641.0524      2294.4864      552.95434      206.38839    
       729  -2641.5893      2294.9161      553.0615       206.38838    
       730  -2642.1183      2295.3396      553.16704      206.38837    
       731  -2642.641       2295.7577      553.27165      206.38837    
       732  -2643.1582      2296.1711      553.37546      206.38836    
       733  -2643.6689      2296.5791      553.47819      206.38835    
       734  -2644.1733      2296.9817      553.57995      206.38835    
       735  -2644.6723      2297.3798      553.68081      206.38834    
       736  -2645.1649      2297.7727      553.78049      206.38833    
       737  -2645.6509      2298.1603      553.87891      206.38833    
       738  -2646.131       2298.5433      553.97608      206.38832    
       739  -2646.6048      2298.9213      554.07186      206.38831    
       740  -2647.0716      2299.2938      554.16613      206.38831    
       741  -2647.5313      2299.6606      554.259        206.3883     
       742  -2647.9841      2300.0219      554.35054      206.38829    
       743  -2648.4306      2300.3781      554.44082      206.38829    
       744  -2648.871       2300.7294      554.52987      206.38828    
       745  -2649.3056      2301.0761      554.61784      206.38828    
       746  -2649.7349      2301.4184      554.70472      206.38827    
       747  -2650.1585      2301.7564      554.79038      206.38826    
       748  -2650.5765      2302.0899      554.87487      206.38826    
       749  -2650.989       2302.4189      554.9583       206.38825    
       750  -2651.3963      2302.7438      555.04075      206.38825    
       751  -2651.7988      2303.0648      555.12224      206.38824    
       752  -2652.1965      2303.3819      555.20281      206.38823    
       753  -2652.5889      2303.6948      555.28233      206.38823    
       754  -2652.9736      2304.0015      555.3603       206.38822    
       755  -2653.3515      2304.3028      555.43695      206.38822    
       756  -2653.7253      2304.6007      555.51285      206.38821    
       757  -2654.0942      2304.8947      555.58776      206.38821    
       758  -2654.4574      2305.184       555.66157      206.3882     
       759  -2654.8153      2305.4691      555.73436      206.3882     
       760  -2655.1683      2305.7504      555.80616      206.38819    
       761  -2655.5166      2306.0279      555.87689      206.38819    
       762  -2655.8603      2306.3019      555.94667      206.38818    
       763  -2656.1992      2306.5719      556.01553      206.38818    
       764  -2656.5327      2306.8375      556.08337      206.38817    
       765  -2656.8613      2307.099       556.15043      206.38817    
       766  -2657.1854      2307.3569      556.21672      206.38816    
       767  -2657.5053      2307.6114      556.28208      206.38816    
       768  -2657.8208      2307.8624      556.3465       206.38815    
       769  -2658.1316      2308.1098      556.40994      206.38815    
       770  -2658.4382      2308.3538      556.4725       206.38814    
       771  -2658.7409      2308.5947      556.53432      206.38814    
       772  -2659.0393      2308.8322      556.59523      206.38813    
       773  -2659.3331      2309.0661      556.65518      206.38813    
       774  -2659.623       2309.2967      556.71441      206.38812    
       775  -2659.9083      2309.5237      556.7727       206.38812    
       776  -2660.1892      2309.7473      556.83001      206.38811    
       777  -2660.4666      2309.9681      556.88658      206.38811    
       778  -2660.7397      2310.1857      556.94211      206.3881     
       779  -2661.0083      2310.3998      556.99661      206.3881     
       780  -2661.2733      2310.611       557.05044      206.3881     
       781  -2661.5351      2310.8195      557.10367      206.38809    
       782  -2661.7933      2311.0252      557.15623      206.38809    
       783  -2662.0476      2311.2277      557.20801      206.38808    
       784  -2662.2977      2311.427       557.25883      206.38808    
       785  -2662.5435      2311.6229      557.30871      206.38807    
       786  -2662.786       2311.8161      557.35794      206.38807    
       787  -2663.0251      2312.0067      557.40649      206.38806    
       788  -2663.2607      2312.1944      557.45437      206.38806    
       789  -2663.493       2312.3795      557.50158      206.38806    
       790  -2663.7223      2312.5622      557.54819      206.38805    
       791  -2663.9484      2312.7423      557.59419      206.38805    
       792  -2664.171       2312.9195      557.63951      206.38804    
       793  -2664.3897      2313.0937      557.68405      206.38804    
       794  -2664.6042      2313.2647      557.72756      206.38804    
       795  -2664.815       2313.4329      557.77017      206.38803    
       796  -2665.0226      2313.5985      557.81207      206.38803    
       797  -2665.2275      2313.762       557.85347      206.38802    
       798  -2665.4296      2313.9233      557.89435      206.38802    
       799  -2665.6285      2314.082       557.93453      206.38802    
       800  -2665.8245      2314.2384      557.97409      206.38801    
       801  -2666.0179      2314.3927      558.01314      206.38801    
       802  -2666.2082      2314.5446      558.05159      206.388      
       803  -2666.3954      2314.694       558.08939      206.388      
       804  -2666.5801      2314.8415      558.1266       206.388      
       805  -2666.7618      2314.9867      558.1631       206.38799    
       806  -2666.9405      2315.1295      558.19891      206.38799    
       807  -2667.1167      2315.2704      558.23427      206.38799    
       808  -2667.2907      2315.4095      558.26915      206.38798    
       809  -2667.4624      2315.5468      558.30356      206.38798    
       810  -2667.6317      2315.6822      558.33751      206.38797    
       811  -2667.7984      2315.8155      558.37088      206.38797    
       812  -2667.9627      2315.9469      558.40371      206.38797    
       813  -2668.1248      2316.0767      558.43608      206.38796    
       814  -2668.2845      2316.2046      558.46787      206.38796    
       815  -2668.4419      2316.3307      558.49916      206.38796    
       816  -2668.5964      2316.4544      558.52988      206.38795    
       817  -2668.748       2316.5759      558.56         206.38795    
       818  -2668.8977      2316.696       558.58973      206.38795    
       819  -2669.0457      2316.8145      558.61911      206.38794    
       820  -2669.1913      2316.9312      558.64799      206.38794    
       821  -2669.3347      2317.0463      558.67635      206.38793    
       822  -2669.4764      2317.16        558.70432      206.38793    
       823  -2669.6163      2317.2723      558.73195      206.38793    
       824  -2669.7545      2317.3832      558.75925      206.38792    
       825  -2669.891       2317.4927      558.78619      206.38792    
       826  -2670.0255      2317.6007      558.81269      206.38792    
       827  -2670.1582      2317.7073      558.83878      206.38791    
       828  -2670.2893      2317.8127      558.8645       206.38791    
       829  -2670.4186      2317.9167      558.88986      206.38791    
       830  -2670.5464      2318.0194      558.91487      206.3879     
       831  -2670.6724      2318.1208      558.9395       206.3879     
       832  -2670.797       2318.2211      558.9638       206.3879     
       833  -2670.9201      2318.3202      558.98774      206.38789    
       834  -2671.0414      2318.418       559.01129      206.38789    
       835  -2671.161       2318.5144      559.03449      206.38789    
       836  -2671.2789      2318.6095      559.05731      206.38788    
       837  -2671.395       2318.7031      559.07978      206.38788    
       838  -2671.5097      2318.7956      559.10195      206.38788    
       839  -2671.623       2318.887       559.12384      206.38787    
       840  -2671.7351      2318.9774      559.14548      206.38787    
       841  -2671.8459      2319.0669      559.1669       206.38787    
       842  -2671.9555      2319.1553      559.18805      206.38786    
       843  -2672.0639      2319.2428      559.20894      206.38786    
       844  -2672.1712      2319.3295      559.22959      206.38786    
       845  -2672.2773      2319.4152      559.24993      206.38785    
       846  -2672.3822      2319.5001      559.26999      206.38785    
       847  -2672.4863      2319.5843      559.28985      206.38785    
       848  -2672.5892      2319.6676      559.30945      206.38784    
       849  -2672.691       2319.75        559.32882      206.38784    
       850  -2672.792       2319.8318      559.34801      206.38784    
       851  -2672.8921      2319.9129      559.36701      206.38783    
       852  -2672.9912      2319.9932      559.38579      206.38783    
       853  -2673.0892      2320.0727      559.40432      206.38783    
       854  -2673.1862      2320.1514      559.42261      206.38782    
       855  -2673.2824      2320.2295      559.4407       206.38782    
       856  -2673.3778      2320.307       559.45862      206.38782    
       857  -2673.4724      2320.3839      559.47636      206.38781    
       858  -2673.5662      2320.4601      559.4939       206.38781    
       859  -2673.6593      2320.5358      559.51129      206.38781    
       860  -2673.7518      2320.611       559.52854      206.3878     
       861  -2673.8436      2320.6857      559.54565      206.3878     
       862  -2673.9347      2320.7599      559.56261      206.3878     
       863  -2674.0253      2320.8336      559.57944      206.38779    
       864  -2674.1152      2320.9069      559.59612      206.38779    
       865  -2674.2045      2320.9796      559.61267      206.38779    
       866  -2674.2932      2321.0518      559.62912      206.38778    
       867  -2674.3814      2321.1237      559.64546      206.38778    
       868  -2674.469       2321.1951      559.66166      206.38778    
       869  -2674.5561      2321.2661      559.67775      206.38778    
       870  -2674.6426      2321.3366      559.69376      206.38777    
       871  -2674.7286      2321.4067      559.70967      206.38777    
       872  -2674.8141      2321.4763      559.7255       206.38777    
       873  -2674.8991      2321.5456      559.74124      206.38776    
       874  -2674.9837      2321.6146      559.75687      206.38776    
       875  -2675.068       2321.6833      559.77242      206.38776    
       876  -2675.1519      2321.7517      559.78789      206.38775    
       877  -2675.2354      2321.8198      559.80331      206.38775    
       878  -2675.3186      2321.8877      559.81868      206.38775    
       879  -2675.4016      2321.9553      559.83398      206.38774    
       880  -2675.4841      2322.0227      559.84919      206.38774    
       881  -2675.5664      2322.0898      559.86432      206.38774    
       882  -2675.6484      2322.1568      559.8794       206.38774    
       883  -2675.7302      2322.2235      559.89441      206.38773    
       884  -2675.8116      2322.2899      559.90937      206.38773    
       885  -2675.8927      2322.3561      559.9243       206.38773    
       886  -2675.9735      2322.422       559.9392       206.38772    
       887  -2676.0541      2322.4878      559.95407      206.38772    
       888  -2676.1346      2322.5534      559.96892      206.38772    
       889  -2676.2148      2322.6188      559.98374      206.38771    
       890  -2676.2949      2322.6841      559.99852      206.38771    
       891  -2676.3747      2322.7492      560.01316      206.38771    
       892  -2676.4542      2322.8142      560.02766      206.38771    
       893  -2676.5335      2322.879       560.04216      206.3877     
       894  -2676.6127      2322.9438      560.05662      206.3877     
       895  -2676.6918      2323.0084      560.07107      206.3877     
       896  -2676.7707      2323.0729      560.08548      206.38769    
       897  -2676.8496      2323.1374      560.09988      206.38769    
       898  -2676.9283      2323.2017      560.11426      206.38769    
       899  -2677.007       2323.266       560.12861      206.38769    
       900  -2677.0855      2323.3302      560.14295      206.38768    
       901  -2677.164       2323.3944      560.15728      206.38768    
       902  -2677.2424      2323.4585      560.17159      206.38768    
       903  -2677.3207      2323.5225      560.18588      206.38767    
       904  -2677.3989      2323.5864      560.20017      206.38767    
       905  -2677.4771      2323.6503      560.21444      206.38767    
       906  -2677.5552      2323.7142      560.22869      206.38767    
       907  -2677.6332      2323.778       560.24294      206.38766    
       908  -2677.7111      2323.8416      560.25718      206.38766    
       909  -2677.7889      2323.9051      560.2714       206.38766    
       910  -2677.8666      2323.9686      560.28562      206.38766    
       911  -2677.9442      2324.032       560.29982      206.38765    
       912  -2678.0217      2324.0953      560.31402      206.38765    
       913  -2678.0991      2324.1585      560.32822      206.38765    
       914  -2678.1765      2324.2217      560.34241      206.38764    
       915  -2678.2538      2324.2848      560.35659      206.38764    
       916  -2678.331       2324.3479      560.37076      206.38764    
       917  -2678.4081      2324.4108      560.38491      206.38764    
       918  -2678.4852      2324.4738      560.39905      206.38763    
       919  -2678.5622      2324.5366      560.41318      206.38763    
       920  -2678.6391      2324.5994      560.4273       206.38763    
       921  -2678.716       2324.6622      560.44141      206.38763    
       922  -2678.7927      2324.7249      560.4555       206.38762    
       923  -2678.8695      2324.7875      560.46958      206.38762    
       924  -2678.9461      2324.8501      560.48365      206.38762    
       925  -2679.0226      2324.9125      560.49771      206.38762    
       926  -2679.099       2324.9748      560.51177      206.38761    
       927  -2679.1753      2325.037       560.52584      206.38761    
       928  -2679.2513      2325.099       560.53995      206.38761    
       929  -2679.3272      2325.1608      560.55406      206.3876     
       930  -2679.403       2325.2225      560.56814      206.3876     
       931  -2679.4787      2325.2841      560.58222      206.3876     
       932  -2679.5543      2325.3456      560.59628      206.3876     
       933  -2679.6299      2325.4071      560.61033      206.38759    
       934  -2679.7053      2325.4686      560.62437      206.38759    
       935  -2679.7807      2325.5299      560.63839      206.38759    
       936  -2679.8561      2325.5912      560.6524       206.38759    
       937  -2679.9313      2325.6524      560.66641      206.38758    
       938  -2680.0064      2325.7135      560.68042      206.38758    
       939  -2680.0814      2325.7745      560.69441      206.38758    
       940  -2680.1563      2325.8355      560.7084       206.38758    
       941  -2680.2311      2325.8963      560.72238      206.38757    
       942  -2680.3058      2325.957       560.73635      206.38757    
       943  -2680.3804      2326.0176      560.75032      206.38757    
       944  -2680.4549      2326.0782      560.76427      206.38757    
       945  -2680.5293      2326.1386      560.7782       206.38756    
       946  -2680.6036      2326.1991      560.79213      206.38756    
       947  -2680.6778      2326.2594      560.806        206.38756    
       948  -2680.7519      2326.3196      560.81982      206.38756    
       949  -2680.8258      2326.3798      560.83363      206.38755    
       950  -2680.8997      2326.4399      560.84743      206.38755    
       951  -2680.9735      2326.4999      560.86121      206.38755    
       952  -2681.0473      2326.5598      560.87498      206.38755    
       953  -2681.1209      2326.6197      560.88874      206.38754    
       954  -2681.1945      2326.6796      560.90248      206.38754    
       955  -2681.268       2326.7393      560.91621      206.38754    
       956  -2681.3414      2326.7991      560.92992      206.38754    
       957  -2681.4148      2326.8587      560.94362      206.38754    
       958  -2681.488       2326.9183      560.95731      206.38753    
       959  -2681.5612      2326.9778      560.97098      206.38753    
       960  -2681.6343      2327.0372      560.98464      206.38753    
       961  -2681.7073      2327.0966      560.99829      206.38753    
       962  -2681.7803      2327.1559      561.01192      206.38752    
       963  -2681.8532      2327.2151      561.02553      206.38752    
       964  -2681.9259      2327.2743      561.03914      206.38752    
       965  -2681.9986      2327.3334      561.05272      206.38752    
       966  -2682.0713      2327.3925      561.0663       206.38751    
       967  -2682.1438      2327.4514      561.07987      206.38751    
       968  -2682.2162      2327.5102      561.09344      206.38751    
       969  -2682.2884      2327.5689      561.10701      206.38751    
       970  -2682.3606      2327.6275      561.1206       206.38751    
       971  -2682.4327      2327.686       561.13422      206.3875     
       972  -2682.5048      2327.7445      561.14782      206.3875     
       973  -2682.5768      2327.8029      561.1614       206.3875     
       974  -2682.6487      2327.8612      561.17497      206.3875     
       975  -2682.7205      2327.9194      561.18853      206.38749    
       976  -2682.7922      2327.9776      561.20207      206.38749    
       977  -2682.8638      2328.0357      561.21561      206.38749    
       978  -2682.9353      2328.0937      561.22914      206.38749    
       979  -2683.0068      2328.1516      561.24266      206.38748    
       980  -2683.0781      2328.2095      561.25616      206.38748    
       981  -2683.1494      2328.2672      561.26964      206.38748    
       982  -2683.2206      2328.325       561.28311      206.38748    
       983  -2683.2917      2328.3826      561.29657      206.38748    
       984  -2683.3627      2328.4402      561.31001      206.38747    
       985  -2683.4337      2328.4977      561.32344      206.38747    
       986  -2683.5044      2328.5551      561.33685      206.38747    
       987  -2683.5751      2328.6123      561.35025      206.38747    
       988  -2683.6456      2328.6694      561.36364      206.38746    
       989  -2683.716       2328.7265      561.37702      206.38746    
       990  -2683.7863      2328.7834      561.39038      206.38746    
       991  -2683.8566      2328.8403      561.40374      206.38746    
       992  -2683.9267      2328.8971      561.41708      206.38746    
       993  -2683.9968      2328.9539      561.4304       206.38745    
       994  -2684.0668      2329.0105      561.44371      206.38745    
       995  -2684.1367      2329.0671      561.457        206.38745    
       996  -2684.2065      2329.1237      561.47028      206.38745    
       997  -2684.2762      2329.1801      561.48355      206.38745    
       998  -2684.3458      2329.2364      561.49682      206.38744    
       999  -2684.4153      2329.2927      561.51008      206.38744    
      1000  -2684.4847      2329.3488      561.52333      206.38744    
      1001  -2684.554       2329.4048      561.53657      206.38744    
      1002  -2684.6231      2329.4608      561.54981      206.38743    
      1003  -2684.6922      2329.5166      561.56303      206.38743    
      1004  -2684.7612      2329.5724      561.57624      206.38743    
      1005  -2684.8301      2329.6281      561.58944      206.38743    
      1006  -2684.8989      2329.6837      561.60262      206.38743    
      1007  -2684.9675      2329.7392      561.6158       206.38742    
      1008  -2685.0361      2329.7945      561.62899      206.38742    
      1009  -2685.1044      2329.8497      561.64216      206.38742    
      1010  -2685.1726      2329.9047      561.65531      206.38742    
      1011  -2685.2408      2329.9598      561.66844      206.38742    
      1012  -2685.3088      2330.0147      561.68155      206.38741    
      1013  -2685.3768      2330.0696      561.69465      206.38741    
      1014  -2685.4447      2330.1244      561.70773      206.38741    
      1015  -2685.5125      2330.1791      561.7208       206.38741    
      1016  -2685.5802      2330.2338      561.73385      206.38741    
      1017  -2685.6478      2330.2883      561.74688      206.3874     
      1018  -2685.7154      2330.3429      561.7599       206.3874     
      1019  -2685.7828      2330.3973      561.7729       206.3874     
      1020  -2685.8502      2330.4517      561.78589      206.3874     
      1021  -2685.9174      2330.5059      561.79887      206.3874     
      1022  -2685.9845      2330.56        561.81184      206.38739    
      1023  -2686.0514      2330.614       561.82479      206.38739    
      1024  -2686.1182      2330.6678      561.83774      206.38739    
      1025  -2686.1849      2330.7216      561.85067      206.38739    
      1026  -2686.2515      2330.7753      561.86359      206.38739    
      1027  -2686.318       2330.8289      561.8765       206.38738    
      1028  -2686.3844      2330.8824      561.88939      206.38738    
      1029  -2686.4507      2330.9359      561.90226      206.38738    
      1030  -2686.517       2330.9892      561.91512      206.38738    
      1031  -2686.5831      2331.0425      561.92796      206.38738    
      1032  -2686.6492      2331.0958      561.94078      206.38737    
      1033  -2686.7151      2331.1489      561.95359      206.38737    
      1034  -2686.781       2331.202       561.96638      206.38737    
      1035  -2686.8468      2331.255       561.97915      206.38737    
      1036  -2686.9125      2331.308       561.99191      206.38737    
      1037  -2686.9781      2331.3608      562.00465      206.38736    
      1038  -2687.0437      2331.4136      562.01737      206.38736    
      1039  -2687.1091      2331.4664      562.03008      206.38736    
      1040  -2687.1744      2331.519       562.04277      206.38736    
      1041  -2687.2397      2331.5716      562.05544      206.38736    
      1042  -2687.3048      2331.6241      562.0681       206.38736    
      1043  -2687.3699      2331.6765      562.08074      206.38735    
      1044  -2687.4348      2331.7288      562.09337      206.38735    
      1045  -2687.4997      2331.781       562.106        206.38735    
      1046  -2687.5644      2331.8332      562.11861      206.38735    
      1047  -2687.6291      2331.8852      562.1312       206.38735    
      1048  -2687.6936      2331.9372      562.14379      206.38734    
      1049  -2687.758       2331.9889      562.15638      206.38734    
      1050  -2687.8221      2332.0405      562.16898      206.38734    
      1051  -2687.8862      2332.092       562.18156      206.38734    
      1052  -2687.9501      2332.1433      562.19413      206.38734    
      1053  -2688.0139      2332.1946      562.20667      206.38734    
      1054  -2688.0776      2332.2457      562.21922      206.38733    
[...]
      9738  -2709.9003      2349.0183      567.26889      206.38691    
      9739  -2709.9003      2349.0183      567.26889      206.38691    
      9740  -2709.9003      2349.0183      567.26889      206.38691    
      9741  -2709.9003      2349.0183      567.26889      206.38691    
      9742  -2709.9003      2349.0183      567.26889      206.38691    
      9743  -2709.9003      2349.0183      567.26889      206.38691    
      9744  -2709.9003      2349.0183      567.26889      206.38691    
      9745  -2709.9003      2349.0183      567.26889      206.38691    
      9746  -2709.9003      2349.0183      567.26889      206.38691    
      9747  -2709.9003      2349.0183      567.26889      206.38691    
      9748  -2709.9003      2349.0183      567.26889      206.38691    
      9749  -2709.9003      2349.0183      567.26889      206.38691    
      9750  -2709.9003      2349.0183      567.26889      206.38691    
      9751  -2709.9003      2349.0183      567.26889      206.38691    
      9752  -2709.9003      2349.0183      567.26889      206.38691    
      9753  -2709.9003      2349.0183      567.26889      206.38691    
      9754  -2709.9003      2349.0183      567.26889      206.38691    
      9755  -2709.9003      2349.0183      567.26889      206.38691    
      9756  -2709.9003      2349.0183      567.26889      206.38691    
      9757  -2709.9003      2349.0183      567.26889      206.38691    
      9758  -2709.9003      2349.0183      567.26889      206.38691    
      9759  -2709.9003      2349.0183      567.26889      206.38691    
      9760  -2709.9003      2349.0183      567.26889      206.38691    
      9761  -2709.9003      2349.0183      567.26889      206.38691    
      9762  -2709.9003      2349.0183      567.26889      206.38691    
      9763  -2709.9003      2349.0183      567.26889      206.38691    
      9764  -2709.9003      2349.0183      567.26889      206.38691    
      9765  -2709.9003      2349.0183      567.26889      206.38691    
      9766  -2709.9003      2349.0183      567.26889      206.38691    
      9767  -2709.9003      2349.0183      567.26889      206.38691    
      9768  -2709.9003      2349.0183      567.26889      206.38691    
      9769  -2709.9003      2349.0183      567.26889      206.38691    
      9770  -2709.9003      2349.0183      567.26889      206.38691    
      9771  -2709.9003      2349.0183      567.26889      206.38691    
      9772  -2709.9003      2349.0183      567.26889      206.38691    
      9773  -2709.9003      2349.0183      567.26889      206.38691    
      9774  -2709.9003      2349.0183      567.26889      206.38691    
      9775  -2709.9003      2349.0183      567.26889      206.38691    
      9776  -2709.9003      2349.0183      567.26889      206.38691    
      9777  -2709.9003      2349.0183      567.26889      206.38691    
      9778  -2709.9003      2349.0183      567.26889      206.38691    
      9779  -2709.9003      2349.0183      567.26889      206.38691    
      9780  -2709.9003      2349.0183      567.26889      206.38691    
      9781  -2709.9003      2349.0183      567.26889      206.38691    
      9782  -2709.9003      2349.0183      567.26889      206.38691    
      9783  -2709.9003      2349.0183      567.26889      206.38691    
      9784  -2709.9003      2349.0183      567.26889      206.38691    
      9785  -2709.9003      2349.0183      567.26889      206.38691    
      9786  -2709.9003      2349.0183      567.26889      206.38691    
      9787  -2709.9003      2349.0183      567.26889      206.38691    
      9788  -2709.9003      2349.0183      567.26889      206.38691    
      9789  -2709.9003      2349.0183      567.26889      206.38691    
      9790  -2709.9003      2349.0183      567.26889      206.38691    
      9791  -2709.9003      2349.0183      567.26889      206.38691    
      9792  -2709.9003      2349.0183      567.26889      206.38691    
      9793  -2709.9003      2349.0183      567.26889      206.38691    
      9794  -2709.9003      2349.0183      567.26889      206.38691    
      9795  -2709.9003      2349.0183      567.26889      206.38691    
      9796  -2709.9003      2349.0183      567.26889      206.38691    
      9797  -2709.9003      2349.0183      567.26889      206.38691    
      9798  -2709.9003      2349.0183      567.26889      206.38691    
      9799  -2709.9003      2349.0183      567.26889      206.38691    
      9800  -2709.9003      2349.0183      567.26889      206.38691    
      9801  -2709.9003      2349.0183      567.26889      206.38691    
      9802  -2709.9003      2349.0183      567.26889      206.38691    
      9803  -2709.9003      2349.0183      567.26889      206.38691    
      9804  -2709.9003      2349.0183      567.26889      206.38691    
      9805  -2709.9003      2349.0183      567.26889      206.38691    
      9806  -2709.9003      2349.0183      567.26889      206.38691    
      9807  -2709.9003      2349.0183      567.26889      206.38691    
      9808  -2709.9003      2349.0183      567.26889      206.38691    
      9809  -2709.9003      2349.0183      567.26889      206.38691    
      9810  -2709.9003      2349.0183      567.26889      206.38691    
      9811  -2709.9003      2349.0183      567.26889      206.38691    
      9812  -2709.9003      2349.0183      567.26889      206.38691    
      9813  -2709.9003      2349.0183      567.26889      206.38691    
      9814  -2709.9003      2349.0183      567.26889      206.38691    
      9815  -2709.9003      2349.0183      567.26889      206.38691    
      9816  -2709.9003      2349.0183      567.26889      206.38691    
      9817  -2709.9003      2349.0183      567.26889      206.38691    
      9818  -2709.9003      2349.0183      567.26889      206.38691    
      9819  -2709.9003      2349.0183      567.26889      206.38691    
      9820  -2709.9003      2349.0183      567.26889      206.38691    
      9821  -2709.9003      2349.0183      567.26889      206.38691    
      9822  -2709.9003      2349.0183      567.26889      206.38691    
      9823  -2709.9003      2349.0183      567.26889      206.38691    
      9824  -2709.9003      2349.0183      567.26889      206.38691    
      9825  -2709.9003      2349.0183      567.26889      206.38691    
      9826  -2709.9003      2349.0183      567.26889      206.38691    
      9827  -2709.9003      2349.0183      567.26889      206.38691    
      9828  -2709.9003      2349.0183      567.26889      206.38691    
      9829  -2709.9003      2349.0183      567.26889      206.38691    
      9830  -2709.9003      2349.0183      567.26889      206.38691    
      9831  -2709.9003      2349.0183      567.26889      206.38691    
      9832  -2709.9003      2349.0183      567.26889      206.38691    
      9833  -2709.9003      2349.0183      567.26889      206.38691    
      9834  -2709.9003      2349.0183      567.26889      206.38691    
      9835  -2709.9003      2349.0183      567.26889      206.38691    
      9836  -2709.9003      2349.0183      567.26889      206.38691    
      9837  -2709.9003      2349.0183      567.26889      206.38691    
      9838  -2709.9003      2349.0183      567.26889      206.38691    
      9839  -2709.9003      2349.0183      567.26889      206.38691    
      9840  -2709.9003      2349.0183      567.26889      206.38691    
      9841  -2709.9003      2349.0183      567.26889      206.38691    
      9842  -2709.9003      2349.0183      567.26889      206.38691    
      9843  -2709.9003      2349.0183      567.26889      206.38691    
      9844  -2709.9003      2349.0183      567.26889      206.38691    
      9845  -2709.9003      2349.0183      567.26889      206.38691    
      9846  -2709.9003      2349.0183      567.26889      206.38691    
      9847  -2709.9003      2349.0183      567.26889      206.38691    
      9848  -2709.9003      2349.0183      567.26889      206.38691    
      9849  -2709.9003      2349.0183      567.26889      206.38691    
      9850  -2709.9003      2349.0183      567.26889      206.38691    
      9851  -2709.9003      2349.0183      567.26889      206.38691    
      9852  -2709.9003      2349.0183      567.26889      206.38691    
      9853  -2709.9003      2349.0183      567.26889      206.38691    
      9854  -2709.9003      2349.0183      567.26889      206.38691    
      9855  -2709.9003      2349.0183      567.26889      206.38691    
      9856  -2709.9003      2349.0183      567.26889      206.38691    
      9857  -2709.9003      2349.0183      567.26889      206.38691    
      9858  -2709.9003      2349.0183      567.26889      206.38691    
      9859  -2709.9003      2349.0183      567.26889      206.38691    
      9860  -2709.9003      2349.0183      567.26889      206.38691    
      9861  -2709.9003      2349.0183      567.26889      206.38691    
      9862  -2709.9003      2349.0183      567.26889      206.38691    
      9863  -2709.9003      2349.0183      567.26889      206.38691    
      9864  -2709.9003      2349.0183      567.26889      206.38691    
      9865  -2709.9003      2349.0183      567.26889      206.38691    
      9866  -2709.9003      2349.0183      567.26889      206.38691    
      9867  -2709.9003      2349.0183      567.26889      206.38691    
      9868  -2709.9003      2349.0183      567.26889      206.38691    
      9869  -2709.9003      2349.0183      567.26889      206.38691    
      9870  -2709.9003      2349.0183      567.26889      206.38691    
      9871  -2709.9003      2349.0183      567.26889      206.38691    
      9872  -2709.9003      2349.0183      567.26889      206.38691    
      9873  -2709.9003      2349.0183      567.26889      206.38691    
      9874  -2709.9003      2349.0183      567.26889      206.38691    
      9875  -2709.9003      2349.0183      567.26889      206.38691    
      9876  -2709.9003      2349.0183      567.26889      206.38691    
      9877  -2709.9003      2349.0183      567.26889      206.38691    
      9878  -2709.9003      2349.0183      567.26889      206.38691    
      9879  -2709.9003      2349.0183      567.26889      206.38691    
      9880  -2709.9003      2349.0183      567.26889      206.38691    
      9881  -2709.9003      2349.0183      567.26889      206.38691    
      9882  -2709.9003      2349.0183      567.26889      206.38691    
      9883  -2709.9003      2349.0183      567.26889      206.38691    
      9884  -2709.9003      2349.0183      567.26889      206.38691    
      9885  -2709.9003      2349.0183      567.26889      206.38691    
      9886  -2709.9003      2349.0183      567.26889      206.38691    
      9887  -2709.9003      2349.0183      567.26889      206.38691    
      9888  -2709.9003      2349.0183      567.26889      206.38691    
      9889  -2709.9003      2349.0183      567.26889      206.38691    
      9890  -2709.9003      2349.0183      567.26889      206.38691    
      9891  -2709.9003      2349.0183      567.26889      206.38691    
      9892  -2709.9003      2349.0183      567.26889      206.38691    
      9893  -2709.9003      2349.0183      567.26889      206.38691    
      9894  -2709.9003      2349.0183      567.26889      206.38691    
      9895  -2709.9003      2349.0183      567.26889      206.38691    
      9896  -2709.9003      2349.0183      567.26889      206.38691    
      9897  -2709.9003      2349.0183      567.26889      206.38691    
      9898  -2709.9003      2349.0183      567.26889      206.38691    
      9899  -2709.9003      2349.0183      567.26889      206.38691    
      9900  -2709.9003      2349.0183      567.26889      206.38691    
      9901  -2709.9003      2349.0183      567.26889      206.38691    
      9902  -2709.9003      2349.0183      567.26889      206.38691    
      9903  -2709.9003      2349.0183      567.26889      206.38691    
      9904  -2709.9003      2349.0183      567.26889      206.38691    
      9905  -2709.9003      2349.0183      567.26889      206.38691    
      9906  -2709.9003      2349.0183      567.26889      206.38691    
      9907  -2709.9003      2349.0183      567.26889      206.38691    
      9908  -2709.9003      2349.0183      567.26889      206.38691    
      9909  -2709.9003      2349.0183      567.26889      206.38691    
      9910  -2709.9003      2349.0183      567.26889      206.38691    
      9911  -2709.9003      2349.0183      567.26889      206.38691    
      9912  -2709.9003      2349.0183      567.26889      206.38691    
      9913  -2709.9003      2349.0183      567.26889      206.38691    
      9914  -2709.9003      2349.0183      567.26889      206.38691    
      9915  -2709.9003      2349.0183      567.26889      206.38691    
      9916  -2709.9003      2349.0183      567.26889      206.38691    
      9917  -2709.9003      2349.0183      567.26889      206.38691    
      9918  -2709.9003      2349.0183      567.26889      206.38691    
      9919  -2709.9003      2349.0183      567.26889      206.38691    
      9920  -2709.9003      2349.0183      567.26889      206.38691    
      9921  -2709.9003      2349.0183      567.26889      206.38691    
      9922  -2709.9003      2349.0183      567.26889      206.38691    
      9923  -2709.9003      2349.0183      567.26889      206.38691    
      9924  -2709.9003      2349.0183      567.26889      206.38691    
      9925  -2709.9003      2349.0183      567.26889      206.38691    
      9926  -2709.9003      2349.0183      567.26889      206.38691    
      9927  -2709.9003      2349.0183      567.26889      206.38691    
      9928  -2709.9003      2349.0183      567.26889      206.38691    
      9929  -2709.9003      2349.0183      567.26889      206.38691    
      9930  -2709.9003      2349.0183      567.26889      206.38691    
      9931  -2709.9003      2349.0183      567.26889      206.38691    
      9932  -2709.9003      2349.0183      567.26889      206.38691    
      9933  -2709.9003      2349.0183      567.26889      206.38691    
      9934  -2709.9003      2349.0183      567.26889      206.38691    
      9935  -2709.9003      2349.0183      567.26889      206.38691    
      9936  -2709.9003      2349.0183      567.26889      206.38691    
      9937  -2709.9003      2349.0183      567.26889      206.38691    
      9938  -2709.9003      2349.0183      567.26889      206.38691    
      9939  -2709.9003      2349.0183      567.26889      206.38691    
      9940  -2709.9003      2349.0183      567.26889      206.38691    
      9941  -2709.9003      2349.0183      567.26889      206.38691    
      9942  -2709.9003      2349.0183      567.26889      206.38691    
      9943  -2709.9003      2349.0183      567.26889      206.38691    
      9944  -2709.9003      2349.0183      567.26889      206.38691    
      9945  -2709.9003      2349.0183      567.26889      206.38691    
      9946  -2709.9003      2349.0183      567.26889      206.38691    
      9947  -2709.9003      2349.0183      567.26889      206.38691    
      9948  -2709.9003      2349.0183      567.26889      206.38691    
      9949  -2709.9003      2349.0183      567.26889      206.38691    
      9950  -2709.9003      2349.0183      567.26889      206.38691    
      9951  -2709.9003      2349.0183      567.26889      206.38691    
      9952  -2709.9003      2349.0183      567.26889      206.38691    
      9953  -2709.9003      2349.0183      567.26889      206.38691    
      9954  -2709.9003      2349.0183      567.26889      206.38691    
      9955  -2709.9003      2349.0183      567.26889      206.38691    
      9956  -2709.9003      2349.0183      567.26889      206.38691    
      9957  -2709.9003      2349.0183      567.26889      206.38691    
      9958  -2709.9003      2349.0183      567.26889      206.38691    
      9959  -2709.9003      2349.0183      567.26889      206.38691    
      9960  -2709.9003      2349.0183      567.26889      206.38691    
      9961  -2709.9003      2349.0183      567.26889      206.38691    
      9962  -2709.9003      2349.0183      567.26889      206.38691    
      9963  -2709.9003      2349.0183      567.26889      206.38691    
      9964  -2709.9003      2349.0183      567.26889      206.38691    
      9965  -2709.9003      2349.0183      567.26889      206.38691    
      9966  -2709.9003      2349.0183      567.26889      206.38691    
      9967  -2709.9003      2349.0183      567.26889      206.38691    
      9968  -2709.9003      2349.0183      567.26889      206.38691    
      9969  -2709.9003      2349.0183      567.26889      206.38691    
      9970  -2709.9003      2349.0183      567.26889      206.38691    
      9971  -2709.9003      2349.0183      567.26889      206.38691    
      9972  -2709.9003      2349.0183      567.26889      206.38691    
      9973  -2709.9003      2349.0183      567.26889      206.38691    
      9974  -2709.9003      2349.0183      567.26889      206.38691    
      9975  -2709.9003      2349.0183      567.26889      206.38691    
      9976  -2709.9003      2349.0183      567.26889      206.38691    
      9977  -2709.9003      2349.0183      567.26889      206.38691    
      9978  -2709.9003      2349.0183      567.26889      206.38691    
      9979  -2709.9003      2349.0183      567.26889      206.38691    
      9980  -2709.9003      2349.0183      567.26889      206.38691    
      9981  -2709.9003      2349.0183      567.26889      206.38691    
      9982  -2709.9003      2349.0183      567.26889      206.38691    
      9983  -2709.9003      2349.0183      567.26889      206.38691    
      9984  -2709.9003      2349.0183      567.26889      206.38691    
      9985  -2709.9003      2349.0183      567.26889      206.38691    
      9986  -2709.9003      2349.0183      567.26889      206.38691    
      9987  -2709.9003      2349.0183      567.26889      206.38691    
      9988  -2709.9003      2349.0183      567.26889      206.38691    
      9989  -2709.9003      2349.0183      567.26889      206.38691    
      9990  -2709.9003      2349.0183      567.26889      206.38691    
      9991  -2709.9003      2349.0183      567.26889      206.38691    
      9992  -2709.9003      2349.0183      567.26889      206.38691    
      9993  -2709.9003      2349.0183      567.26889      206.38691    
      9994  -2709.9003      2349.0183      567.26889      206.38691    
      9995  -2709.9003      2349.0183      567.26889      206.38691    
      9996  -2709.9003      2349.0183      567.26889      206.38691    
      9997  -2709.9003      2349.0183      567.26889      206.38691    
      9998  -2709.9003      2349.0183      567.26889      206.38691    
      9999  -2709.9003      2349.0183      567.26889      206.38691    
     10000  -2709.9003      2349.0183      567.26889      206.38691    
Loop time of 373.838 on 1 procs for 10000 steps with 1000 atoms

99.1% CPU use with 1 MPI tasks x no OpenMP threads

MPI task timing breakdown:
Section |  min time  |  avg time  |  max time  |%varavg| %total
---------------------------------------------------------------
Pair    | 370.53     | 370.53     | 370.53     |   0.0 | 99.11
Neigh   | 0.087829   | 0.087829   | 0.087829   |   0.0 |  0.02
Comm    | 0.10485    | 0.10485    | 0.10485    |   0.0 |  0.03
Output  | 1.6685     | 1.6685     | 1.6685     |   0.0 |  0.45
Modify  | 1.418      | 1.418      | 1.418      |   0.0 |  0.38
Other   |            | 0.02998    |            |       |  0.01

Nlocal:           1000 ave        1000 max        1000 min
Histogram: 1 0 0 0 0 0 0 0 0 0
Nghost:            129 ave         129 max         129 min
Histogram: 1 0 0 0 0 0 0 0 0 0
Neighs:              7 ave           7 max           7 min
Histogram: 1 0 0 0 0 0 0 0 0 0

Total # of neighbors = 7
Ave neighs/atom = 0.007
Neighbor list builds = 100
Dangerous builds = 100
Total wall time: 0:06:14
