LAMMPS (21 Nov 2023 - Development - stable_29Oct2020-13896-gaf03d5760a-modified)
# Test
# This test has two SH particles (with shape coefficients supplied
# in the file A-anm-00001.dat) in a head-on collision.

# The atom stype defines the maximum degree of the SH expansion to
# be 10, and uses 120 quadrature points in both polar and azimuthal
# directions for computation of volume/moment of interia.

# The difference between this and in.test-simple1 is that we use
# the standard potential energy compuation at a lower frequency

atom_style	shdem 10	120 A-anm-00001.dat
units		si
newton          off

###############################################
# Geometry-related parameters
###############################################

variable	boxx equal 100
variable	boxy equal 100
variable	boxz equal 100


region		boxreg block 0 ${boxx} 0 ${boxy} 0 ${boxz}
region		boxreg block 0 100 0 ${boxy} 0 ${boxz}
region		boxreg block 0 100 0 100 0 ${boxz}
region		boxreg block 0 100 0 100 0 100
create_box	2 boxreg
Created orthogonal box = (0 0 0) to (100 100 100)
  1 by 1 by 1 MPI processor grid
change_box	all boundary f f f
Changing box ...

create_atoms 	1 single 34.5 50.0 50.0
Created 1 atoms
  using lattice units in orthogonal box = (0 0 0) to (100 100 100)
  create_atoms CPU = 0.000 seconds
create_atoms 	2 single 52.5 50.0 50.0
Created 1 atoms
  using lattice units in orthogonal box = (0 0 0) to (100 100 100)
  create_atoms CPU = 0.001 seconds

set 		atom 1 vx  1.0 vy 0.0 vz 0.0
Setting atom values ...
  1 settings made for vx
  1 settings made for vy
  1 settings made for vz
set 		atom 2 vx -1.0 vy 0.0 vz 0.0
Setting atom values ...
  1 settings made for vx
  1 settings made for vy
  1 settings made for vz

set		atom 1 sh/shape 1
Setting atom values ...
  1 settings made for sh/shape
set		atom 2 sh/shape 1
Setting atom values ...
  1 settings made for sh/shape
set		group all sh/quat/random 4
Setting atom values ...
  2 settings made for sh/quat/random

fix		time_fix all nve/sh

neigh_modify	delay 0 every 1 check yes
comm_modify	vel yes


thermo          10

compute         TransKE all ke
compute         overlap all pe
compute         RotKE   all erotate/shdem
variable        ETotal  equal "c_overlap + c_TransKE + c_RotKE"
variable        ERot    equal "C_RotKE"
thermo_style custom step v_ETotal c_TransKE c_RotKE c_overlap


pair_style 	shdem
pair_coeff      * * 5.0e-2 2.0 30

timestep	1.0e-3
variable 	step equal step
run		1000
Generated 0 of 1 mixed pair_coeff terms from geometric mixing rule
Neighbor list info ...
  update: every = 1 steps, delay = 0 steps, check = yes
  max neighbors/atom: 2000, page size: 100000
  master list distance cutoff = 24.157971
  ghost atom cutoff = 24.157971
  binsize = 12.078986, bins = 9 9 9
  1 neighbor lists, perpetual/occasional/extra = 1 0 0
  (1) pair shdem, perpetual
      attributes: half, newton off
      pair build: half/bin/atomonly/newtoff
      stencil: full/bin/3d
      bin: standard
Per MPI rank memory allocation (min/avg/max) = 5.356 | 5.356 | 5.356 Mbytes
   Step        v_ETotal      c_TransKE       c_RotKE       c_overlap   
         0   1              1              0              0            
        10   1              1              0              0            
        20   1              1              0              0            
        30   1              1              0              0            
        40   1              1              0              0            
        50   1              1              0              0            
        60   1              1              0              0            
        70   1              1              0              0            
        80   1              1              0              0            
        90   1              1              0              0            
       100   1              1              0              0            
       110   1              1              0              0            
       120   1              1              0              0            
       130   1              1              0              0            
       140   1              1              0              0            
       150   1.0000029      0.99997507     7.0115315e-11  2.7850922e-05
       160   1.0000023      0.99986296     2.0937214e-09  0.00013932327
       170   1.0000024      0.99956343     2.0806663e-08  0.00043894047
       180   1.0000029      0.99879619     1.4457648e-07  0.0012065933 
       190   1.0000003      0.99710401     7.6005424e-07  0.0028955204 
       200   0.99999958     0.99388031     3.1854841e-06  0.0061160785 
       210   0.99999797     0.98843059     1.0976413e-05  0.011556401  
       220   0.9999954      0.97997086     3.2364317e-05  0.019992172  
       230   0.99998261     0.96806153     8.1757284e-05  0.031839327  
       240   0.99997575     0.95212085     0.00018354325  0.047671353  
       250   0.99997101     0.93153166     0.00037697634  0.068062376  
       260   0.99997202     0.9059392      0.00071838225  0.09331444   
       270   0.99995659     0.87485157     0.0012887017   0.12381632   
       280   0.99993239     0.83744645     0.0022137893   0.16027215   
       290   0.99993262     0.79443955     0.0036245159   0.20186855   
       300   1.0013722      0.74541112     0.0057280514   0.25023307   
       310   1.0014311      0.69071678     0.0087555753   0.30195873   
       320   1.0014274      0.63099797     0.012979482    0.35744997   
       330   1.0013807      0.56800187     0.018652959    0.41472587   
       340   1.0013375      0.50373132     0.025971329    0.47163489   
       350   1.0013409      0.43857915     0.035297808    0.52746399   
       360   1.0013875      0.3736445      0.047011841    0.58073117   
       370   1.0014513      0.31098176     0.061292552    0.629177     
       380   1.0014948      0.25257127     0.078195393    0.67072814   
       390   1.0015209      0.19942643     0.097918775    0.70417574   
       400   1.0015628      0.1526106      0.12058338     0.72836883   
       410   1.0016245      0.1131894      0.14620971     0.74222539   
       420   1.0017188      0.082030783    0.17462256     0.74506541   
       430   1.0018091      0.05969522     0.20548188     0.73663201   
       440   1.0019047      0.046243404    0.23826477     0.71739651   
       450   1.0019748      0.041261007    0.27263177     0.68808205   
       460   1.0020014      0.044071132    0.30797194     0.64995831   
       470   1.0019537      0.05381418     0.34388133     0.60425815   
       480   1.0019832      0.0692592      0.37946315     0.55326085   
       490   1.0019825      0.089346042    0.41452499     0.4981115    
       500   1.0018845      0.11283575     0.44839524     0.4406535    
       510   1.0017926      0.13839427     0.48043093     0.38296737   
       520   1.0017327      0.16476788     0.51028813     0.32667668   
       530   1.0016626      0.19068054     0.53740486     0.27357723   
       540   0.9996128      0.21524559     0.56158685     0.22278035   
       550   0.99962952     0.23756594     0.5825216      0.17954198   
       560   0.99965207     0.25778791     0.60073311     0.14113105   
       570   0.99964124     0.27544505     0.61618853     0.10800766   
       580   0.99962454     0.29050538     0.62907057     0.080048585  
       590   0.99962299     0.30282507     0.63942851     0.057369407  
       600   0.99960791     0.31274592     0.64763427     0.039227721  
       610   0.99959512     0.3202046      0.65371756     0.025672958  
       620   0.99959605     0.3257027      0.65816659     0.015726764  
       630   0.99951594     0.3295738      0.66127887     0.0086632769 
       640   0.99951652     0.33202176     0.66323975     0.0042550084 
       650   0.99951858     0.33340476     0.66434315     0.0017706728 
       660   0.9995191      0.33408863     0.66488734     0.00054312542
       670   0.99951922     0.3343377      0.66508581     9.5711659e-05
       680   0.99951926     0.3343874      0.66512566     6.1957516e-06
       690   0.99951932     0.33439087     0.66512846     0            
       700   0.99951932     0.33439087     0.66512846     0            
       710   0.99951932     0.33439087     0.66512846     0            
       720   0.99951932     0.33439087     0.66512846     0            
       730   0.99951932     0.33439087     0.66512846     0            
       740   0.99951932     0.33439087     0.66512846     0            
       750   0.99951932     0.33439087     0.66512846     0            
       760   0.99951932     0.33439087     0.66512846     0            
       770   0.99951932     0.33439087     0.66512846     0            
       780   0.99951932     0.33439087     0.66512846     0            
       790   0.99951932     0.33439087     0.66512846     0            
       800   0.99951932     0.33439087     0.66512846     0            
       810   0.99951932     0.33439087     0.66512846     0            
       820   0.99951932     0.33439087     0.66512846     0            
       830   0.99951932     0.33439087     0.66512846     0            
       840   0.99951932     0.33439087     0.66512846     0            
       850   0.99951932     0.33439087     0.66512846     0            
       860   0.99951932     0.33439087     0.66512846     0            
       870   0.99951932     0.33439087     0.66512846     0            
       880   0.99951932     0.33439087     0.66512846     0            
       890   0.99951932     0.33439087     0.66512846     0            
       900   0.99951932     0.33439087     0.66512846     0            
       910   0.99951932     0.33439087     0.66512846     0            
       920   0.99951932     0.33439087     0.66512846     0            
       930   0.99951932     0.33439087     0.66512846     0            
       940   0.99951932     0.33439087     0.66512846     0            
       950   0.99951932     0.33439087     0.66512846     0            
       960   0.99951932     0.33439087     0.66512846     0            
       970   0.99951932     0.33439087     0.66512846     0            
       980   0.99951932     0.33439087     0.66512846     0            
       990   0.99951932     0.33439087     0.66512846     0            
      1000   0.99951932     0.33439087     0.66512846     0            
Loop time of 25.6186 on 1 procs for 1000 steps with 2 atoms

99.2% CPU use with 1 MPI tasks x no OpenMP threads

MPI task timing breakdown:
Section |  min time  |  avg time  |  max time  |%varavg| %total
---------------------------------------------------------------
Pair    | 25.609     | 25.609     | 25.609     |   0.0 | 99.96
Neigh   | 0.002657   | 0.002657   | 0.002657   |   0.0 |  0.01
Comm    | 0.000532   | 0.000532   | 0.000532   |   0.0 |  0.00
Output  | 0.002755   | 0.002755   | 0.002755   |   0.0 |  0.01
Modify  | 0.001745   | 0.001745   | 0.001745   |   0.0 |  0.01
Other   |            | 0.001522   |            |       |  0.01

Nlocal:              2 ave           2 max           2 min
Histogram: 1 0 0 0 0 0 0 0 0 0
Nghost:              0 ave           0 max           0 min
Histogram: 1 0 0 0 0 0 0 0 0 0
Neighs:              1 ave           1 max           1 min
Histogram: 1 0 0 0 0 0 0 0 0 0

Total # of neighbors = 1
Ave neighs/atom = 0.5
Neighbor list builds = 904
Dangerous builds = 824
Total wall time: 0:00:25
